# vtk DataFile Version 3.0
#This file was generated by the deal.II library on 2020/3/17 at 18:06:43
ASCII
DATASET UNSTRUCTURED_GRID

POINTS 120 double
0 0 0
0.25 0 0
0 0.25 0
0.25 0.25 0
0.25 0 0
0.5 0 0
0.25 0.25 0
0.5 0.25 0
0 0.25 0
0.25 0.25 0
0 0.5 0
0.25 0.5 0
0.5 0 0
0.75 0 0
0.5 0.25 0
0.75 0.25 0
0.75 0 0
1 0 0
0.75 0.25 0
1 0.25 0
0.75 0.25 0
1 0.25 0
0.75 0.5 0
1 0.5 0
0 0.5 0
0.25 0.5 0
0 0.75 0
0.25 0.75 0
0 0.75 0
0.25 0.75 0
0 1 0
0.25 1 0
0.25 0.75 0
0.5 0.75 0
0.25 1 0
0.5 1 0
0.25 0.25 0
0.375 0.25 0
0.25 0.375 0
0.375 0.375 0
0.375 0.25 0
0.5 0.25 0
0.375 0.375 0
0.5 0.375 0
0.25 0.375 0
0.375 0.375 0
0.25 0.5 0
0.375 0.5 0
0.5 0.25 0
0.625 0.25 0
0.5 0.375 0
0.625 0.375 0
0.625 0.25 0
0.75 0.25 0
0.625 0.375 0
0.75 0.375 0
0.625 0.375 0
0.75 0.375 0
0.625 0.5 0
0.75 0.5 0
0.25 0.5 0
0.375 0.5 0
0.25 0.625 0
0.375 0.625 0
0.25 0.625 0
0.375 0.625 0
0.25 0.75 0
0.375 0.75 0
0.375 0.625 0
0.5 0.625 0
0.375 0.75 0
0.5 0.75 0
0.375 0.375 0
0.4375 0.375 0
0.375 0.4375 0
0.4375 0.4375 0
0.4375 0.375 0
0.5 0.375 0
0.4375 0.4375 0
0.5 0.4375 0
0.375 0.4375 0
0.4375 0.4375 0
0.375 0.5 0
0.4375 0.5 0
0.4375 0.4375 0
0.5 0.4375 0
0.4375 0.5 0
0.5 0.5 0
0.5 0.375 0
0.5625 0.375 0
0.5 0.4375 0
0.5625 0.4375 0
0.5625 0.375 0
0.625 0.375 0
0.5625 0.4375 0
0.625 0.4375 0
0.5 0.4375 0
0.5625 0.4375 0
0.5 0.5 0
0.5625 0.5 0
0.5625 0.4375 0
0.625 0.4375 0
0.5625 0.5 0
0.625 0.5 0
0.375 0.5 0
0.4375 0.5 0
0.375 0.5625 0
0.4375 0.5625 0
0.4375 0.5 0
0.5 0.5 0
0.4375 0.5625 0
0.5 0.5625 0
0.375 0.5625 0
0.4375 0.5625 0
0.375 0.625 0
0.4375 0.625 0
0.4375 0.5625 0
0.5 0.5625 0
0.4375 0.625 0
0.5 0.625 0

CELLS 30 150
4	0	1	3	2
4	4	5	7	6
4	8	9	11	10
4	12	13	15	14
4	16	17	19	18
4	20	21	23	22
4	24	25	27	26
4	28	29	31	30
4	32	33	35	34
4	36	37	39	38
4	40	41	43	42
4	44	45	47	46
4	48	49	51	50
4	52	53	55	54
4	56	57	59	58
4	60	61	63	62
4	64	65	67	66
4	68	69	71	70
4	72	73	75	74
4	76	77	79	78
4	80	81	83	82
4	84	85	87	86
4	88	89	91	90
4	92	93	95	94
4	96	97	99	98
4	100	101	103	102
4	104	105	107	106
4	108	109	111	110
4	112	113	115	114
4	116	117	119	118

CELL_TYPES 30
 9 9 9 9 9 9 9 9 9 9 9 9 9 9 9 9 9 9 9 9 9 9 9 9 9 9 9 9 9 9
POINT_DATA 120
SCALARS solution double 1
LOOKUP_TABLE default
0 0.214863 0 0.190216 0.214863 0.458989 0.190216 0.439743 0 0.190216 0 0.128328 0.458989 0.726178 0.439743 0.735477 0.726178 1 0.735477 1 0.735477 1 0.743345 1 0 0.128328 0 0.0743071 0 0.0743071 0 0.0589582 0.0743071 0.120515 0.0589582 0.0820218 0.190216 0.312017 0.247799 0.283934 0.312017 0.439743 0.283934 0.401358 0.247799 0.283934 0.128328 0.235972 0.439743 0.53098 0.401358 0.548273 0.53098 0.735477 0.548273 0.58668 0.548273 0.58668 0.528056 0.743345 0.128328 0.235972 0.165521 0.167794 0.165521 0.167794 0.0743071 0.157002 0.167794 0.197283 0.157002 0.120515 0.283934 0.333048 0.299731 0.318311 0.333048 0.401358 0.318311 0.371504 0.299731 0.318311 0.235972 0.287611 0.318311 0.371504 0.287611 0.333333 0.401358 0.435808 0.371504 0.43778 0.435808 0.548273 0.43778 0.459133 0.371504 0.43778 0.333333 0.424778 0.43778 0.459133 0.424778 0.528056 0.235972 0.287611 0.241137 0.243908 0.287611 0.333333 0.243908 0.256993 0.241137 0.243908 0.167794 0.231144 0.243908 0.256993 0.231144 0.197283 
