# vtk DataFile Version 3.0
#This file was generated by the deal.II library on 2020/3/17 at 17:55:03
ASCII
DATASET UNSTRUCTURED_GRID

POINTS 3072 double
0 0 0
0.03125 0 0
0 0.03125 0
0.03125 0.03125 0
0.03125 0 0
0.0625 0 0
0.03125 0.03125 0
0.0625 0.03125 0
0 0.03125 0
0.03125 0.03125 0
0 0.0625 0
0.03125 0.0625 0
0.03125 0.03125 0
0.0625 0.03125 0
0.03125 0.0625 0
0.0625 0.0625 0
0.0625 0 0
0.09375 0 0
0.0625 0.03125 0
0.09375 0.03125 0
0.09375 0 0
0.125 0 0
0.09375 0.03125 0
0.125 0.03125 0
0.0625 0.03125 0
0.09375 0.03125 0
0.0625 0.0625 0
0.09375 0.0625 0
0.09375 0.03125 0
0.125 0.03125 0
0.09375 0.0625 0
0.125 0.0625 0
0 0.0625 0
0.03125 0.0625 0
0 0.09375 0
0.03125 0.09375 0
0.03125 0.0625 0
0.0625 0.0625 0
0.03125 0.09375 0
0.0625 0.09375 0
0 0.09375 0
0.03125 0.09375 0
0 0.125 0
0.03125 0.125 0
0.03125 0.09375 0
0.0625 0.09375 0
0.03125 0.125 0
0.0625 0.125 0
0.0625 0.0625 0
0.09375 0.0625 0
0.0625 0.09375 0
0.09375 0.09375 0
0.09375 0.0625 0
0.125 0.0625 0
0.09375 0.09375 0
0.125 0.09375 0
0.0625 0.09375 0
0.09375 0.09375 0
0.0625 0.125 0
0.09375 0.125 0
0.09375 0.09375 0
0.125 0.09375 0
0.09375 0.125 0
0.125 0.125 0
0.125 0 0
0.15625 0 0
0.125 0.03125 0
0.15625 0.03125 0
0.15625 0 0
0.1875 0 0
0.15625 0.03125 0
0.1875 0.03125 0
0.125 0.03125 0
0.15625 0.03125 0
0.125 0.0625 0
0.15625 0.0625 0
0.15625 0.03125 0
0.1875 0.03125 0
0.15625 0.0625 0
0.1875 0.0625 0
0.1875 0 0
0.21875 0 0
0.1875 0.03125 0
0.21875 0.03125 0
0.21875 0 0
0.25 0 0
0.21875 0.03125 0
0.25 0.03125 0
0.1875 0.03125 0
0.21875 0.03125 0
0.1875 0.0625 0
0.21875 0.0625 0
0.21875 0.03125 0
0.25 0.03125 0
0.21875 0.0625 0
0.25 0.0625 0
0.125 0.0625 0
0.15625 0.0625 0
0.125 0.09375 0
0.15625 0.09375 0
0.15625 0.0625 0
0.1875 0.0625 0
0.15625 0.09375 0
0.1875 0.09375 0
0.125 0.09375 0
0.15625 0.09375 0
0.125 0.125 0
0.15625 0.125 0
0.15625 0.09375 0
0.1875 0.09375 0
0.15625 0.125 0
0.1875 0.125 0
0.1875 0.0625 0
0.21875 0.0625 0
0.1875 0.09375 0
0.21875 0.09375 0
0.21875 0.0625 0
0.25 0.0625 0
0.21875 0.09375 0
0.25 0.09375 0
0.1875 0.09375 0
0.21875 0.09375 0
0.1875 0.125 0
0.21875 0.125 0
0.21875 0.09375 0
0.25 0.09375 0
0.21875 0.125 0
0.25 0.125 0
0 0.125 0
0.03125 0.125 0
0 0.15625 0
0.03125 0.15625 0
0.03125 0.125 0
0.0625 0.125 0
0.03125 0.15625 0
0.0625 0.15625 0
0 0.15625 0
0.03125 0.15625 0
0 0.1875 0
0.03125 0.1875 0
0.03125 0.15625 0
0.0625 0.15625 0
0.03125 0.1875 0
0.0625 0.1875 0
0.0625 0.125 0
0.09375 0.125 0
0.0625 0.15625 0
0.09375 0.15625 0
0.09375 0.125 0
0.125 0.125 0
0.09375 0.15625 0
0.125 0.15625 0
0.0625 0.15625 0
0.09375 0.15625 0
0.0625 0.1875 0
0.09375 0.1875 0
0.09375 0.15625 0
0.125 0.15625 0
0.09375 0.1875 0
0.125 0.1875 0
0 0.1875 0
0.03125 0.1875 0
0 0.21875 0
0.03125 0.21875 0
0.03125 0.1875 0
0.0625 0.1875 0
0.03125 0.21875 0
0.0625 0.21875 0
0 0.21875 0
0.03125 0.21875 0
0 0.25 0
0.03125 0.25 0
0.03125 0.21875 0
0.0625 0.21875 0
0.03125 0.25 0
0.0625 0.25 0
0.0625 0.1875 0
0.09375 0.1875 0
0.0625 0.21875 0
0.09375 0.21875 0
0.09375 0.1875 0
0.125 0.1875 0
0.09375 0.21875 0
0.125 0.21875 0
0.0625 0.21875 0
0.09375 0.21875 0
0.0625 0.25 0
0.09375 0.25 0
0.09375 0.21875 0
0.125 0.21875 0
0.09375 0.25 0
0.125 0.25 0
0.125 0.125 0
0.15625 0.125 0
0.125 0.15625 0
0.15625 0.15625 0
0.15625 0.125 0
0.1875 0.125 0
0.15625 0.15625 0
0.1875 0.15625 0
0.125 0.15625 0
0.15625 0.15625 0
0.125 0.1875 0
0.15625 0.1875 0
0.15625 0.15625 0
0.1875 0.15625 0
0.15625 0.1875 0
0.1875 0.1875 0
0.1875 0.125 0
0.21875 0.125 0
0.1875 0.15625 0
0.21875 0.15625 0
0.21875 0.125 0
0.25 0.125 0
0.21875 0.15625 0
0.25 0.15625 0
0.1875 0.15625 0
0.21875 0.15625 0
0.1875 0.1875 0
0.21875 0.1875 0
0.21875 0.15625 0
0.25 0.15625 0
0.21875 0.1875 0
0.25 0.1875 0
0.125 0.1875 0
0.15625 0.1875 0
0.125 0.21875 0
0.15625 0.21875 0
0.15625 0.1875 0
0.1875 0.1875 0
0.15625 0.21875 0
0.1875 0.21875 0
0.125 0.21875 0
0.15625 0.21875 0
0.125 0.25 0
0.15625 0.25 0
0.15625 0.21875 0
0.1875 0.21875 0
0.15625 0.25 0
0.1875 0.25 0
0.1875 0.1875 0
0.21875 0.1875 0
0.1875 0.21875 0
0.21875 0.21875 0
0.21875 0.1875 0
0.25 0.1875 0
0.21875 0.21875 0
0.25 0.21875 0
0.1875 0.21875 0
0.21875 0.21875 0
0.1875 0.25 0
0.21875 0.25 0
0.21875 0.21875 0
0.25 0.21875 0
0.21875 0.25 0
0.25 0.25 0
0.25 0 0
0.28125 0 0
0.25 0.03125 0
0.28125 0.03125 0
0.28125 0 0
0.3125 0 0
0.28125 0.03125 0
0.3125 0.03125 0
0.25 0.03125 0
0.28125 0.03125 0
0.25 0.0625 0
0.28125 0.0625 0
0.28125 0.03125 0
0.3125 0.03125 0
0.28125 0.0625 0
0.3125 0.0625 0
0.3125 0 0
0.34375 0 0
0.3125 0.03125 0
0.34375 0.03125 0
0.34375 0 0
0.375 0 0
0.34375 0.03125 0
0.375 0.03125 0
0.3125 0.03125 0
0.34375 0.03125 0
0.3125 0.0625 0
0.34375 0.0625 0
0.34375 0.03125 0
0.375 0.03125 0
0.34375 0.0625 0
0.375 0.0625 0
0.25 0.0625 0
0.28125 0.0625 0
0.25 0.09375 0
0.28125 0.09375 0
0.28125 0.0625 0
0.3125 0.0625 0
0.28125 0.09375 0
0.3125 0.09375 0
0.25 0.09375 0
0.28125 0.09375 0
0.25 0.125 0
0.28125 0.125 0
0.28125 0.09375 0
0.3125 0.09375 0
0.28125 0.125 0
0.3125 0.125 0
0.3125 0.0625 0
0.34375 0.0625 0
0.3125 0.09375 0
0.34375 0.09375 0
0.34375 0.0625 0
0.375 0.0625 0
0.34375 0.09375 0
0.375 0.09375 0
0.3125 0.09375 0
0.34375 0.09375 0
0.3125 0.125 0
0.34375 0.125 0
0.34375 0.09375 0
0.375 0.09375 0
0.34375 0.125 0
0.375 0.125 0
0.375 0 0
0.40625 0 0
0.375 0.03125 0
0.40625 0.03125 0
0.40625 0 0
0.4375 0 0
0.40625 0.03125 0
0.4375 0.03125 0
0.375 0.03125 0
0.40625 0.03125 0
0.375 0.0625 0
0.40625 0.0625 0
0.40625 0.03125 0
0.4375 0.03125 0
0.40625 0.0625 0
0.4375 0.0625 0
0.4375 0 0
0.46875 0 0
0.4375 0.03125 0
0.46875 0.03125 0
0.46875 0 0
0.5 0 0
0.46875 0.03125 0
0.5 0.03125 0
0.4375 0.03125 0
0.46875 0.03125 0
0.4375 0.0625 0
0.46875 0.0625 0
0.46875 0.03125 0
0.5 0.03125 0
0.46875 0.0625 0
0.5 0.0625 0
0.375 0.0625 0
0.40625 0.0625 0
0.375 0.09375 0
0.40625 0.09375 0
0.40625 0.0625 0
0.4375 0.0625 0
0.40625 0.09375 0
0.4375 0.09375 0
0.375 0.09375 0
0.40625 0.09375 0
0.375 0.125 0
0.40625 0.125 0
0.40625 0.09375 0
0.4375 0.09375 0
0.40625 0.125 0
0.4375 0.125 0
0.4375 0.0625 0
0.46875 0.0625 0
0.4375 0.09375 0
0.46875 0.09375 0
0.46875 0.0625 0
0.5 0.0625 0
0.46875 0.09375 0
0.5 0.09375 0
0.4375 0.09375 0
0.46875 0.09375 0
0.4375 0.125 0
0.46875 0.125 0
0.46875 0.09375 0
0.5 0.09375 0
0.46875 0.125 0
0.5 0.125 0
0.25 0.125 0
0.28125 0.125 0
0.25 0.15625 0
0.28125 0.15625 0
0.28125 0.125 0
0.3125 0.125 0
0.28125 0.15625 0
0.3125 0.15625 0
0.25 0.15625 0
0.28125 0.15625 0
0.25 0.1875 0
0.28125 0.1875 0
0.28125 0.15625 0
0.3125 0.15625 0
0.28125 0.1875 0
0.3125 0.1875 0
0.3125 0.125 0
0.34375 0.125 0
0.3125 0.15625 0
0.34375 0.15625 0
0.34375 0.125 0
0.375 0.125 0
0.34375 0.15625 0
0.375 0.15625 0
0.3125 0.15625 0
0.34375 0.15625 0
0.3125 0.1875 0
0.34375 0.1875 0
0.34375 0.15625 0
0.375 0.15625 0
0.34375 0.1875 0
0.375 0.1875 0
0.25 0.1875 0
0.28125 0.1875 0
0.25 0.21875 0
0.28125 0.21875 0
0.28125 0.1875 0
0.3125 0.1875 0
0.28125 0.21875 0
0.3125 0.21875 0
0.25 0.21875 0
0.28125 0.21875 0
0.25 0.25 0
0.28125 0.25 0
0.28125 0.21875 0
0.3125 0.21875 0
0.28125 0.25 0
0.3125 0.25 0
0.3125 0.1875 0
0.34375 0.1875 0
0.3125 0.21875 0
0.34375 0.21875 0
0.34375 0.1875 0
0.375 0.1875 0
0.34375 0.21875 0
0.375 0.21875 0
0.3125 0.21875 0
0.34375 0.21875 0
0.3125 0.25 0
0.34375 0.25 0
0.34375 0.21875 0
0.375 0.21875 0
0.34375 0.25 0
0.375 0.25 0
0.375 0.125 0
0.40625 0.125 0
0.375 0.15625 0
0.40625 0.15625 0
0.40625 0.125 0
0.4375 0.125 0
0.40625 0.15625 0
0.4375 0.15625 0
0.375 0.15625 0
0.40625 0.15625 0
0.375 0.1875 0
0.40625 0.1875 0
0.40625 0.15625 0
0.4375 0.15625 0
0.40625 0.1875 0
0.4375 0.1875 0
0.4375 0.125 0
0.46875 0.125 0
0.4375 0.15625 0
0.46875 0.15625 0
0.46875 0.125 0
0.5 0.125 0
0.46875 0.15625 0
0.5 0.15625 0
0.4375 0.15625 0
0.46875 0.15625 0
0.4375 0.1875 0
0.46875 0.1875 0
0.46875 0.15625 0
0.5 0.15625 0
0.46875 0.1875 0
0.5 0.1875 0
0.375 0.1875 0
0.40625 0.1875 0
0.375 0.21875 0
0.40625 0.21875 0
0.40625 0.1875 0
0.4375 0.1875 0
0.40625 0.21875 0
0.4375 0.21875 0
0.375 0.21875 0
0.40625 0.21875 0
0.375 0.25 0
0.40625 0.25 0
0.40625 0.21875 0
0.4375 0.21875 0
0.40625 0.25 0
0.4375 0.25 0
0.4375 0.1875 0
0.46875 0.1875 0
0.4375 0.21875 0
0.46875 0.21875 0
0.46875 0.1875 0
0.5 0.1875 0
0.46875 0.21875 0
0.5 0.21875 0
0.4375 0.21875 0
0.46875 0.21875 0
0.4375 0.25 0
0.46875 0.25 0
0.46875 0.21875 0
0.5 0.21875 0
0.46875 0.25 0
0.5 0.25 0
0 0.25 0
0.03125 0.25 0
0 0.28125 0
0.03125 0.28125 0
0.03125 0.25 0
0.0625 0.25 0
0.03125 0.28125 0
0.0625 0.28125 0
0 0.28125 0
0.03125 0.28125 0
0 0.3125 0
0.03125 0.3125 0
0.03125 0.28125 0
0.0625 0.28125 0
0.03125 0.3125 0
0.0625 0.3125 0
0.0625 0.25 0
0.09375 0.25 0
0.0625 0.28125 0
0.09375 0.28125 0
0.09375 0.25 0
0.125 0.25 0
0.09375 0.28125 0
0.125 0.28125 0
0.0625 0.28125 0
0.09375 0.28125 0
0.0625 0.3125 0
0.09375 0.3125 0
0.09375 0.28125 0
0.125 0.28125 0
0.09375 0.3125 0
0.125 0.3125 0
0 0.3125 0
0.03125 0.3125 0
0 0.34375 0
0.03125 0.34375 0
0.03125 0.3125 0
0.0625 0.3125 0
0.03125 0.34375 0
0.0625 0.34375 0
0 0.34375 0
0.03125 0.34375 0
0 0.375 0
0.03125 0.375 0
0.03125 0.34375 0
0.0625 0.34375 0
0.03125 0.375 0
0.0625 0.375 0
0.0625 0.3125 0
0.09375 0.3125 0
0.0625 0.34375 0
0.09375 0.34375 0
0.09375 0.3125 0
0.125 0.3125 0
0.09375 0.34375 0
0.125 0.34375 0
0.0625 0.34375 0
0.09375 0.34375 0
0.0625 0.375 0
0.09375 0.375 0
0.09375 0.34375 0
0.125 0.34375 0
0.09375 0.375 0
0.125 0.375 0
0.125 0.25 0
0.15625 0.25 0
0.125 0.28125 0
0.15625 0.28125 0
0.15625 0.25 0
0.1875 0.25 0
0.15625 0.28125 0
0.1875 0.28125 0
0.125 0.28125 0
0.15625 0.28125 0
0.125 0.3125 0
0.15625 0.3125 0
0.15625 0.28125 0
0.1875 0.28125 0
0.15625 0.3125 0
0.1875 0.3125 0
0.1875 0.25 0
0.21875 0.25 0
0.1875 0.28125 0
0.21875 0.28125 0
0.21875 0.25 0
0.25 0.25 0
0.21875 0.28125 0
0.25 0.28125 0
0.1875 0.28125 0
0.21875 0.28125 0
0.1875 0.3125 0
0.21875 0.3125 0
0.21875 0.28125 0
0.25 0.28125 0
0.21875 0.3125 0
0.25 0.3125 0
0.125 0.3125 0
0.15625 0.3125 0
0.125 0.34375 0
0.15625 0.34375 0
0.15625 0.3125 0
0.1875 0.3125 0
0.15625 0.34375 0
0.1875 0.34375 0
0.125 0.34375 0
[...]
POINT_DATA 3072
SCALARS solution double 1
LOOKUP_TABLE default
0 0.0259767 0 0.0259476 0.0259767 0.0520112 0.0259476 0.0519534 0 0.0259476 0 0.0258604 0.0259476 0.0519534 0.0258604 0.0517795 0.0520112 0.0781612 0.0519534 0.0780749 0.0781612 0.104483 0.0780749 0.104369 0.0519534 0.0780749 0.0517795 0.0778156 0.0780749 0.104369 0.0778156 0.104026 0 0.0258604 0 0.0257144 0.0258604 0.0517795 0.0257144 0.0514883 0 0.0257144 0 0.0255087 0.0257144 0.0514883 0.0255087 0.0510781 0.0517795 0.0778156 0.0514883 0.0773812 0.0778156 0.104026 0.0773812 0.103452 0.0514883 0.0773812 0.0510781 0.0767688 0.0773812 0.103452 0.0767688 0.102641 0.104483 0.131033 0.104369 0.130892 0.131033 0.157862 0.130892 0.157696 0.104369 0.130892 0.104026 0.130468 0.130892 0.157696 0.130468 0.157196 0.157862 0.185024 0.157696 0.184834 0.185024 0.212564 0.184834 0.212352 0.157696 0.184834 0.157196 0.184262 0.184834 0.212352 0.184262 0.211715 0.104026 0.130468 0.103452 0.129758 0.130468 0.157196 0.129758 0.156356 0.103452 0.129758 0.102641 0.128755 0.129758 0.156356 0.128755 0.155169 0.157196 0.184262 0.156356 0.183301 0.184262 0.211715 0.183301 0.210644 0.156356 0.183301 0.155169 0.181941 0.183301 0.210644 0.181941 0.209125 0 0.0255087 0 0.0252423 0.0255087 0.0510781 0.0252423 0.0505466 0 0.0252423 0 0.0249141 0.0252423 0.0505466 0.0249141 0.0498912 0.0510781 0.0767688 0.0505466 0.0759747 0.0767688 0.102641 0.0759747 0.101589 0.0505466 0.0759747 0.0498912 0.0749946 0.0759747 0.101589 0.0749946 0.100288 0 0.0249141 0 0.0245229 0.0249141 0.0498912 0.0245229 0.0491097 0 0.0245229 0 0.0240682 0.0245229 0.0491097 0.0240682 0.0482004 0.0498912 0.0749946 0.0491097 0.0738246 0.0749946 0.100288 0.0738246 0.0987332 0.0491097 0.0738246 0.0482004 0.0724614 0.0738246 0.0987332 0.0724614 0.0969179 0.102641 0.128755 0.101589 0.127451 0.128755 0.155169 0.127451 0.153623 0.101589 0.127451 0.100288 0.125837 0.127451 0.153623 0.125837 0.151706 0.155169 0.181941 0.153623 0.180167 0.181941 0.209125 0.180167 0.207141 0.153623 0.180167 0.151706 0.177961 0.180167 0.207141 0.177961 0.204668 0.100288 0.125837 0.0987332 0.123903 0.125837 0.151706 0.123903 0.149402 0.0987332 0.123903 0.0969179 0.121639 0.123903 0.149402 0.121639 0.146698 0.151706 0.177961 0.149402 0.175303 0.177961 0.204668 0.175303 0.201677 0.149402 0.175303 0.146698 0.172171 0.175303 0.201677 0.172171 0.19814 0.212564 0.240525 0.212352 0.240294 0.240525 0.268944 0.240294 0.268698 0.212352 0.240294 0.211715 0.2396 0.240294 0.268698 0.2396 0.267957 0.268944 0.297853 0.268698 0.297595 0.297853 0.327275 0.297595 0.327009 0.268698 0.297595 0.267957 0.296818 0.297595 0.327009 0.296818 0.326208 0.211715 0.2396 0.210644 0.238432 0.2396 0.267957 0.238432 0.266708 0.210644 0.238432 0.209125 0.236774 0.238432 0.266708 0.236774 0.264934 0.267957 0.296818 0.266708 0.295508 0.296818 0.326208 0.295508 0.324858 0.266708 0.295508 0.264934 0.293644 0.295508 0.324858 0.293644 0.322936 0.327275 0.357224 0.327009 0.356956 0.357224 0.387709 0.356956 0.387441 0.327009 0.356956 0.326208 0.356145 0.356956 0.387441 0.356145 0.386634 0.387709 0.418725 0.387441 0.418463 0.418725 0.450263 0.418463 0.450011 0.387441 0.418463 0.386634 0.417673 0.418463 0.450011 0.417673 0.44925 0.326208 0.356145 0.324858 0.354777 0.356145 0.386634 0.354777 0.385273 0.324858 0.354777 0.322936 0.35283 0.354777 0.385273 0.35283 0.383335 0.386634 0.417673 0.385273 0.416342 0.417673 0.44925 0.416342 0.44797 0.385273 0.416342 0.383335 0.414448 0.416342 0.44797 0.414448 0.446152 0.209125 0.236774 0.207141 0.234603 0.236774 0.264934 0.234603 0.262606 0.207141 0.234603 0.204668 0.23189 0.234603 0.262606 0.23189 0.259689 0.264934 0.293644 0.262606 0.291195 0.293644 0.322936 0.291195 0.320407 0.262606 0.291195 0.259689 0.288119 0.291195 0.320407 0.288119 0.317225 0.204668 0.23189 0.201677 0.228598 0.23189 0.259689 0.228598 0.256138 0.201677 0.228598 0.19814 0.224687 0.228598 0.256138 0.224687 0.251899 0.259689 0.288119 0.256138 0.284363 0.288119 0.317225 0.284363 0.31333 0.256138 0.284363 0.251899 0.279859 0.284363 0.31333 0.279859 0.308643 0.322936 0.35283 0.320407 0.350267 0.35283 0.383335 0.350267 0.380786 0.320407 0.350267 0.317225 0.347039 0.350267 0.380786 0.347039 0.377576 0.383335 0.414448 0.380786 0.41196 0.414448 0.446152 0.41196 0.443768 0.380786 0.41196 0.377576 0.408831 0.41196 0.443768 0.408831 0.44078 0.317225 0.347039 0.31333 0.343082 0.347039 0.377576 0.343082 0.373641 0.31333 0.343082 0.308643 0.338309 0.343082 0.373641 0.338309 0.368892 0.377576 0.408831 0.373641 0.405002 0.408831 0.44078 0.405002 0.437136 0.373641 0.405002 0.368892 0.400392 0.405002 0.437136 0.400392 0.43277 0 0.0240682 0 0.0235498 0.0240682 0.0482004 0.0235498 0.0471629 0 0.0235498 0 0.0229686 0.0235498 0.0471629 0.0229686 0.0459985 0.0482004 0.0724614 0.0471629 0.0709035 0.0724614 0.0969179 0.0709035 0.0948388 0.0471629 0.0709035 0.0459985 0.0691524 0.0709035 0.0948388 0.0691524 0.0924962 0 0.0229686 0 0.0223267 0.0229686 0.0459985 0.0223267 0.0447112 0 0.0223267 0 0.0216277 0.0223267 0.0447112 0.0216277 0.0433079 0.0459985 0.0691524 0.0447112 0.0672129 0.0691524 0.0924962 0.0672129 0.089895 0.0447112 0.0672129 0.0433079 0.0650949 0.0672129 0.089895 0.0650949 0.0870472 0.0969179 0.121639 0.0948388 0.119039 0.121639 0.146698 0.119039 0.143581 0.0948388 0.119039 0.0924962 0.116101 0.119039 0.143581 0.116101 0.140044 0.146698 0.172171 0.143581 0.168546 0.172171 0.19814 0.168546 0.194024 0.143581 0.168546 0.140044 0.164411 0.168546 0.194024 0.164411 0.189301 0.0924962 0.116101 0.089895 0.112827 0.116101 0.140044 0.112827 0.136085 0.089895 0.112827 0.0870472 0.109229 0.112827 0.136085 0.109229 0.131716 0.140044 0.164411 0.136085 0.159758 0.164411 0.189301 0.159758 0.18395 0.136085 0.159758 0.131716 0.154593 0.159758 0.18395 0.154593 0.177967 0 0.0216277 0 0.0208768 0.0216277 0.0433079 0.0208768 0.0417989 0 0.0208768 0 0.0200811 0.0208768 0.0417989 0.0200811 0.0401986 0.0433079 0.0650949 0.0417989 0.0628137 0.0650949 0.0870472 0.0628137 0.0839724 0.0417989 0.0628137 0.0401986 0.0603907 0.0628137 0.0839724 0.0603907 0.0806992 0 0.0200811 0 0.0192494 0.0200811 0.0401986 0.0192494 0.0385248 0 0.0192494 0 0.0183922 0.0192494 0.0385248 0.0183922 0.0367986 0.0401986 0.0603907 0.0385248 0.0578533 0.0603907 0.0806992 0.0578533 0.0772651 0.0385248 0.0578533 0.0367986 0.0552341 0.0578533 0.0772651 0.0552341 0.0737154 0.0870472 0.109229 0.0839724 0.105333 0.109229 0.131716 0.105333 0.126961 0.0839724 0.105333 0.0806992 0.101171 0.105333 0.126961 0.101171 0.121864 0.131716 0.154593 0.126961 0.14894 0.154593 0.177967 0.14894 0.171368 0.126961 0.14894 0.121864 0.142845 0.14894 0.171368 0.142845 0.164203 0.0806992 0.101171 0.0772651 0.0967945 0.101171 0.121864 0.0967945 0.116483 0.0772651 0.0967945 0.0737154 0.0922617 0.0967945 0.116483 0.0922617 0.110896 0.121864 0.142845 0.116483 0.136382 0.142845 0.164203 0.136382 0.156558 0.116483 0.136382 0.110896 0.129649 0.136382 0.156558 0.129649 0.148557 0.19814 0.224687 0.194024 0.22011 0.224687 0.251899 0.22011 0.246909 0.194024 0.22011 0.189301 0.214822 0.22011 0.246909 0.214822 0.2411 0.251899 0.279859 0.246909 0.274527 0.279859 0.308643 0.274527 0.303064 0.246909 0.274527 0.2411 0.268269 0.274527 0.303064 0.268269 0.296469 0.189301 0.214822 0.18395 0.208783 0.214822 0.2411 0.208783 0.234402 0.18395 0.208783 0.177967 0.201967 0.208783 0.234402 0.201967 0.226757 0.2411 0.268269 0.234402 0.260978 0.268269 0.296469 0.260978 0.288702 0.234402 0.260978 0.226757 0.252542 0.260978 0.288702 0.252542 0.27958 0.308643 0.338309 0.303064 0.332609 0.338309 0.368892 0.332609 0.363214 0.303064 0.332609 0.296469 0.32583 0.332609 0.363214 0.32583 0.356446 0.368892 0.400392 0.363214 0.394891 0.400392 0.43277 0.394891 0.42759 0.363214 0.394891 0.356446 0.388346 0.394891 0.42759 0.388346 0.421474 0.296469 0.32583 0.288702 0.317775 0.32583 0.356446 0.317775 0.348361 0.288702 0.317775 0.27958 0.308177 0.317775 0.348361 0.308177 0.338633 0.356446 0.388346 0.348361 0.38054 0.388346 0.421474 0.38054 0.414251 0.348361 0.38054 0.338633 0.371144 0.38054 0.414251 0.371144 0.405667 0.177967 0.201967 0.171368 0.194376 0.201967 0.226757 0.194376 0.218134 0.171368 0.194376 0.164203 0.186054 0.194376 0.218134 0.186054 0.208558 0.226757 0.252542 0.218134 0.242872 0.252542 0.27958 0.242872 0.268909 0.218134 0.242872 0.208558 0.231943 0.242872 0.268909 0.231943 0.256551 0.164203 0.186054 0.156558 0.177101 0.186054 0.208558 0.177101 0.198136 0.156558 0.177101 0.148557 0.167673 0.177101 0.198136 0.167673 0.187067 0.208558 0.231943 0.198136 0.21985 0.231943 0.256551 0.21985 0.242534 0.198136 0.21985 0.187067 0.206844 0.21985 0.242534 0.206844 0.227165 0.27958 0.308177 0.268909 0.296688 0.308177 0.338633 0.296688 0.326765 0.268909 0.296688 0.256551 0.282922 0.296688 0.326765 0.282922 0.311964 0.338633 0.371144 0.326765 0.359614 0.371144 0.405667 0.359614 0.395319 0.326765 0.359614 0.311964 0.344982 0.359614 0.395319 0.344982 0.38244 0.256551 0.282922 0.242534 0.266692 0.282922 0.311964 0.266692 0.293271 0.242534 0.266692 0.227165 0.248305 0.266692 0.293271 0.248305 0.270824 0.311964 0.344982 0.293271 0.324777 0.344982 0.38244 0.324777 0.365705 0.293271 0.324777 0.270824 0.295701 0.324777 0.365705 0.295701 0.333333 0.450263 0.482303 0.450011 0.482064 0.482303 0.51482 0.482064 0.514597 0.450011 0.482064 0.44925 0.481344 0.482064 0.514597 0.481344 0.513926 0.51482 0.54778 0.514597 0.547576 0.54778 0.58115 0.547576 0.580965 0.514597 0.547576 0.513926 0.54696 0.547576 0.580965 0.54696 0.580409 0.44925 0.481344 0.44797 0.480134 0.481344 0.513926 0.480134 0.5128 0.44797 0.480134 0.446152 0.478419 0.480134 0.5128 0.478419 0.51121 0.513926 0.54696 0.5128 0.54593 0.54696 0.580409 0.54593 0.57948 0.5128 0.54593 0.51121 0.544479 0.54593 0.57948 0.544479 0.578177 0.58115 0.614889 0.580965 0.614724 0.614889 0.648959 0.614724 0.648814 0.580965 0.614724 0.580409 0.614229 0.614724 0.648814 0.614229 0.648379 0.648959 0.683319 0.648814 0.683194 0.683319 0.717931 0.683194 0.717824 0.648814 0.683194 0.648379 0.682818 0.683194 0.717824 0.682818 0.717504 0.580409 0.614229 0.57948 0.613405 0.614229 0.648379 0.613405 0.647658 0.57948 0.613405 0.578177 0.612252 0.613405 0.647658 0.612252 0.646652 0.648379 0.682818 0.647658 0.682194 0.682818 0.717504 0.682194 0.716974 0.647658 0.682194 0.646652 0.68133 0.682194 0.716974 0.68133 0.716241 0.446152 0.478419 0.443768 0.476177 0.478419 0.51121 0.476177 0.509139 0.443768 0.476177 0.44078 0.473379 0.476177 0.509139 0.473379 0.506569 0.51121 0.544479 0.509139 0.5426 0.544479 0.578177 0.5426 0.576498 0.509139 0.5426 0.506569 0.540282 0.5426 0.576498 0.540282 0.574442 0.44078 0.473379 0.437136 0.469987 0.473379 0.506569 0.469987 0.503476 0.437136 0.469987 0.43277 0.465951 0.469987 0.503476 0.465951 0.499831 0.506569 0.540282 0.503476 0.537515 0.540282 0.574442 0.537515 0.572012 0.503476 0.537515 0.499831 0.534293 0.537515 0.572012 0.534293 0.569216 0.578177 0.612252 0.576498 0.610775 0.612252 0.646652 0.610775 0.645371 0.576498 0.610775 0.574442 0.608979 0.610775 0.645371 0.608979 0.643826 0.646652 0.68133 0.645371 0.680235 0.68133 0.716241 0.680235 0.715317 0.645371 0.680235 0.643826 0.678922 0.680235 0.715317 0.678922 0.714217 0.574442 0.608979 0.572012 0.606877 0.608979 0.643826 0.606877 0.642033 0.572012 0.606877 0.569216 0.60449 0.606877 0.642033 0.60449 0.640021 0.643826 0.678922 0.642033 0.677413 0.678922 0.714217 0.677413 0.712962 0.642033 0.677413 0.640021 0.675738 0.677413 0.712962 0.675738 0.711583 0.717931 0.752759 0.717824 0.752669 0.752759 0.787768 0.752669 0.787693 0.717824 0.752669 0.717504 0.7524 0.752669 0.787693 0.7524 0.787472 0.787768 0.822925 0.787693 0.822866 0.822925 0.858203 0.822866 0.858157 0.787693 0.822866 0.787472 0.822688 0.822866 0.858157 0.822688 0.85802 0.717504 0.7524 0.716974 0.751956 0.7524 0.787472 0.751956 0.787108 0.716974 0.751956 0.716241 0.751345 0.751956 0.787108 0.751345 0.786607 0.787472 0.822688 0.787108 0.822397 0.822688 0.85802 0.822397 0.857794 0.787108 0.822397 0.786607 0.821997 0.822397 0.857794 0.821997 0.857486 0.858203 0.893574 0.858157 0.89354 0.893574 0.929012 0.89354 0.92899 0.858157 0.89354 0.85802 0.89344 0.89354 0.92899 0.89344 0.928925 0.929012 0.964495 0.92899 0.964484 0.964495 1 0.964484 1 0.92899 0.964484 0.928925 0.964452 0.964484 1 0.964452 1 0.85802 0.89344 0.857794 0.893276 0.89344 0.928925 0.893276 0.928818 0.857794 0.893276 0.857486 0.893051 0.893276 0.928818 0.893051 0.928671 0.928925 0.964452 0.928818 0.964399 0.964452 1 0.964399 1 0.928818 0.964399 0.928671 0.964327 0.964399 1 0.964327 1 0.716241 0.751345 0.715317 0.750578 0.751345 0.786607 0.750578 0.785981 0.715317 0.750578 0.714217 0.749669 0.750578 0.785981 0.749669 0.785244 0.786607 0.821997 0.785981 0.821498 0.821997 0.857486 0.821498 0.857102 0.785981 0.821498 0.785244 0.820913 0.821498 0.857102 0.820913 0.856654 0.714217 0.749669 0.712962 0.74864 0.749669 0.785244 0.74864 0.784413 0.712962 0.74864 0.711583 0.747518 0.74864 0.784413 0.747518 0.783514 0.785244 0.820913 0.784413 0.820257 0.820913 0.856654 0.820257 0.856153 0.784413 0.820257 0.783514 0.819551 0.820257 0.856153 0.819551 0.855616 0.857486 0.893051 0.857102 0.892772 0.893051 0.928671 0.892772 0.92849 0.857102 0.892772 0.856654 0.892447 0.892772 0.92849 0.892447 0.928279 0.928671 0.964327 0.92849 0.964238 0.964327 1 0.964238 1 0.92849 0.964238 0.928279 0.964133 0.964238 1 0.964133 1 0.856654 0.892447 0.856153 0.892086 0.892447 0.928279 0.892086 0.928044 0.856153 0.892086 0.855616 0.891699 0.892086 0.928044 0.891699 0.927794 0.928279 0.964133 0.928044 0.964018 0.964133 1 0.964018 1 0.928044 0.964018 0.927794 0.963895 0.964018 1 0.963895 1 0.43277 0.465951 0.42759 0.46121 0.465951 0.499831 0.46121 0.495606 0.42759 0.46121 0.421474 0.455686 0.46121 0.495606 0.455686 0.49077 0.499831 0.534293 0.495606 0.530614 0.534293 0.569216 0.530614 0.566076 0.495606 0.530614 0.49077 0.526492 0.530614 0.566076 0.526492 0.562632 0.421474 0.455686 0.414251 0.44928 0.455686 0.49077 0.44928 0.485304 0.414251 0.44928 0.405667 0.441872 0.44928 0.485304 0.441872 0.47922 0.49077 0.526492 0.485304 0.521967 0.526492 0.562632 0.521967 0.558964 0.485304 0.521967 0.47922 0.517144 0.521967 0.558964 0.517144 0.55521 0.569216 0.60449 0.566076 0.601851 0.60449 0.640021 0.601851 0.637831 0.566076 0.601851 0.562632 0.599017 0.601851 0.637831 0.599017 0.635523 0.640021 0.675738 0.637831 0.673938 0.675738 0.711583 0.673938 0.710118 0.637831 0.673938 0.635523 0.672071 0.673938 0.710118 0.672071 0.708619 0.562632 0.599017 0.558964 0.596078 0.599017 0.635523 0.596078 0.633182 0.558964 0.596078 0.55521 0.593171 0.596078 0.633182 0.593171 0.630926 0.635523 0.672071 0.633182 0.670213 0.672071 0.708619 0.670213 0.707147 0.633182 0.670213 0.630926 0.668457 0.670213 0.707147 0.668457 0.705778 0.405667 0.441872 0.395319 0.433315 0.441872 0.47922 0.433315 0.472623 0.395319 0.433315 0.38244 0.423514 0.433315 0.472623 0.423514 0.465866 0.47922 0.517144 0.472623 0.512252 0.517144 0.55521 0.512252 0.551612 0.472623 0.512252 0.465866 0.507804 0.512252 0.551612 0.507804 0.548534 0.38244 0.423514 0.365705 0.412295 0.423514 0.465866 0.412295 0.460549 0.365705 0.412295 0.333333 0.408598 0.412295 0.460549 0.408598 0.458353 0.465866 0.507804 0.460549 0.504574 0.507804 0.548534 0.504574 0.546425 0.460549 0.504574 0.458353 0.50339 0.504574 0.546425 0.50339 0.545669 0.55521 0.593171 0.551612 0.590492 0.593171 0.630926 0.590492 0.628904 0.551612 0.590492 0.548534 0.588289 0.590492 0.628904 0.588289 0.627285 0.630926 0.668457 0.628904 0.666914 0.668457 0.705778 0.666914 0.704592 0.628904 0.666914 0.627285 0.665701 0.666914 0.704592 0.665701 0.703671 0.548534 0.588289 0.546425 0.586827 0.588289 0.627285 0.586827 0.626232 0.546425 0.586827 0.545669 0.586313 0.586827 0.626232 0.586313 0.625866 0.627285 0.665701 0.626232 0.664923 0.665701 0.703671 0.664923 0.703086 0.626232 0.664923 0.625866 0.664654 0.664923 0.703086 0.664654 0.702885 0.711583 0.747518 0.710118 0.746338 0.747518 0.783514 0.746338 0.782575 0.710118 0.746338 0.708619 0.745142 0.746338 0.782575 0.745142 0.781633 0.783514 0.819551 0.782575 0.818819 0.819551 0.855616 0.818819 0.855062 0.782575 0.818819 0.781633 0.818088 0.818819 0.855062 0.818088 0.854511 0.708619 0.745142 0.707147 0.743982 0.745142 0.781633 0.743982 0.780726 0.707147 0.743982 0.705778 0.742915 0.743982 0.780726 0.742915 0.779899 0.781633 0.818088 0.780726 0.81739 0.818088 0.854511 0.81739 0.853989 0.780726 0.81739 0.779899 0.816758 0.81739 0.853989 0.816758 0.853517 0.855616 0.891699 0.855062 0.891301 0.891699 0.927794 0.891301 0.927537 0.855062 0.891301 0.854511 0.890908 0.891301 0.927537 0.890908 0.927284 0.927794 0.963895 0.927537 0.963769 0.963895 1 0.963769 1 0.927537 0.963769 0.927284 0.963645 0.963769 1 0.963645 1 0.854511 0.890908 0.853989 0.890536 0.890908 0.927284 0.890536 0.927045 0.853989 0.890536 0.853517 0.890201 0.890536 0.927045 0.890201 0.92683 0.927284 0.963645 0.927045 0.963528 0.963645 1 0.963528 1 0.927045 0.963528 0.92683 0.963424 0.963528 1 0.963424 1 0.705778 0.742915 0.704592 0.742001 0.742915 0.779899 0.742001 0.779196 0.704592 0.742001 0.703671 0.741298 0.742001 0.779196 0.741298 0.778659 0.779899 0.816758 0.779196 0.816224 0.816758 0.853517 0.816224 0.853121 0.779196 0.816224 0.778659 0.815817 0.816224 0.853121 0.815817 0.85282 0.703671 0.741298 0.703086 0.740854 0.741298 0.778659 0.740854 0.778322 0.703086 0.740854 0.702885 0.740702 0.740854 0.778322 0.740702 0.778207 0.778659 0.815817 0.778322 0.815563 0.815817 0.85282 0.815563 0.852633 0.778322 0.815563 0.778207 0.815477 0.815563 0.852633 0.815477 0.852569 0.853517 0.890201 0.853121 0.889921 0.890201 0.92683 0.889921 0.926651 0.853121 0.889921 0.85282 0.889709 0.889921 0.926651 0.889709 0.926516 0.92683 0.963424 0.926651 0.963336 0.963424 1 0.963336 1 0.926651 0.963336 0.926516 0.96327 0.963336 1 0.96327 1 0.85282 0.889709 0.852633 0.889577 0.889709 0.926516 0.889577 0.926431 0.852633 0.889577 0.852569 0.889532 0.889577 0.926431 0.889532 0.926403 0.926516 0.96327 0.926431 0.963229 0.96327 1 0.963229 1 0.926431 0.963229 0.926403 0.963216 0.963229 1 0.963216 1 0 0.0183922 0 0.0175212 0.0183922 0.0367986 0.0175212 0.0350439 0 0.0175212 0 0.0166485 0.0175212 0.0350439 0.0166485 0.0332859 0.0367986 0.0552341 0.0350439 0.0525701 0.0552341 0.0737154 0.0525701 0.070102 0.0350439 0.0525701 0.0332859 0.0499006 0.0525701 0.070102 0.0499006 0.0664803 0 0.0166485 0 0.0157869 0.0166485 0.0332859 0.0157869 0.0315503 0 0.0157869 0 0.0149485 0.0157869 0.0315503 0.0149485 0.029862 0.0332859 0.0499006 0.0315503 0.0472657 0.0499006 0.0664803 0.0472657 0.0629068 0.0315503 0.0472657 0.029862 0.0447041 0.0472657 0.0629068 0.0447041 0.0594356 0.0737154 0.0922617 0.070102 0.0876424 0.0922617 0.110896 0.0876424 0.105195 0.070102 0.0876424 0.0664803 0.0830112 0.0876424 0.105195 0.0830112 0.099477 0.110896 0.129649 0.105195 0.122764 0.129649 0.148557 0.122764 0.140356 0.105195 0.122764 0.099477 0.115858 0.122764 0.140356 0.115858 0.132126 0.0664803 0.0830112 0.0629068 0.0784439 0.0830112 0.099477 0.0784439 0.0938423 0.0629068 0.0784439 0.0594356 0.0740128 0.0784439 0.0938423 0.0740128 0.0883853 0.099477 0.115858 0.0938423 0.109059 0.115858 0.132126 0.109059 0.12404 0.0938423 0.109059 0.0883853 0.102492 0.109059 0.12404 0.102492 0.116255 0 0.0149485 0 0.0141448 0.0149485 0.029862 0.0141448 0.0282443 0 0.0141448 0 0.013386 0.0141448 0.0282443 0.013386 0.0267178 0.029862 0.0447041 0.0282443 0.0422515 0.0447041 0.0594356 0.0422515 0.0561163 0.0282443 0.0422515 0.0267178 0.0399396 0.0422515 0.0561163 0.0399396 0.0529923 0 0.013386 0 0.0126808 0.013386 0.0267178 0.0126808 0.0253002 0 0.0126808 0 0.0120366 0.0126808 0.0253002 0.0120366 0.024006 0.0267178 0.0399396 0.0253002 0.0377952 0.0399396 0.0529923 0.0377952 0.0500995 0.0253002 0.0377952 0.024006 0.0358397 0.0377952 0.0500995 0.0358397 0.0474662 0.0594356 0.0740128 0.0561163 0.0697833 0.0740128 0.0883853 0.0697833 0.0831893 0.0561163 0.0697833 0.0529923 0.0658112 0.0697833 0.0831893 0.0658112 0.0783239 0.0883853 0.102492 0.08