# vtk DataFile Version 3.0
#This file was generated by the deal.II library on 2020/3/17 at 17:55:02
ASCII
DATASET UNSTRUCTURED_GRID

POINTS 192 double
0 0 0
0.125 0 0
0 0.125 0
0.125 0.125 0
0.125 0 0
0.25 0 0
0.125 0.125 0
0.25 0.125 0
0 0.125 0
0.125 0.125 0
0 0.25 0
0.125 0.25 0
0.125 0.125 0
0.25 0.125 0
0.125 0.25 0
0.25 0.25 0
0.25 0 0
0.375 0 0
0.25 0.125 0
0.375 0.125 0
0.375 0 0
0.5 0 0
0.375 0.125 0
0.5 0.125 0
0.25 0.125 0
0.375 0.125 0
0.25 0.25 0
0.375 0.25 0
0.375 0.125 0
0.5 0.125 0
0.375 0.25 0
0.5 0.25 0
0 0.25 0
0.125 0.25 0
0 0.375 0
0.125 0.375 0
0.125 0.25 0
0.25 0.25 0
0.125 0.375 0
0.25 0.375 0
0 0.375 0
0.125 0.375 0
0 0.5 0
0.125 0.5 0
0.125 0.375 0
0.25 0.375 0
0.125 0.5 0
0.25 0.5 0
0.25 0.25 0
0.375 0.25 0
0.25 0.375 0
0.375 0.375 0
0.375 0.25 0
0.5 0.25 0
0.375 0.375 0
0.5 0.375 0
0.25 0.375 0
0.375 0.375 0
0.25 0.5 0
0.375 0.5 0
0.375 0.375 0
0.5 0.375 0
0.375 0.5 0
0.5 0.5 0
0.5 0 0
0.625 0 0
0.5 0.125 0
0.625 0.125 0
0.625 0 0
0.75 0 0
0.625 0.125 0
0.75 0.125 0
0.5 0.125 0
0.625 0.125 0
0.5 0.25 0
0.625 0.25 0
0.625 0.125 0
0.75 0.125 0
0.625 0.25 0
0.75 0.25 0
0.75 0 0
0.875 0 0
0.75 0.125 0
0.875 0.125 0
0.875 0 0
1 0 0
0.875 0.125 0
1 0.125 0
0.75 0.125 0
0.875 0.125 0
0.75 0.25 0
0.875 0.25 0
0.875 0.125 0
1 0.125 0
0.875 0.25 0
1 0.25 0
0.5 0.25 0
0.625 0.25 0
0.5 0.375 0
0.625 0.375 0
0.625 0.25 0
0.75 0.25 0
0.625 0.375 0
0.75 0.375 0
0.5 0.375 0
0.625 0.375 0
0.5 0.5 0
0.625 0.5 0
0.625 0.375 0
0.75 0.375 0
0.625 0.5 0
0.75 0.5 0
0.75 0.25 0
0.875 0.25 0
0.75 0.375 0
0.875 0.375 0
0.875 0.25 0
1 0.25 0
0.875 0.375 0
1 0.375 0
0.75 0.375 0
0.875 0.375 0
0.75 0.5 0
0.875 0.5 0
0.875 0.375 0
1 0.375 0
0.875 0.5 0
1 0.5 0
0 0.5 0
0.125 0.5 0
0 0.625 0
0.125 0.625 0
0.125 0.5 0
0.25 0.5 0
0.125 0.625 0
0.25 0.625 0
0 0.625 0
0.125 0.625 0
0 0.75 0
0.125 0.75 0
0.125 0.625 0
0.25 0.625 0
0.125 0.75 0
0.25 0.75 0
0.25 0.5 0
0.375 0.5 0
0.25 0.625 0
0.375 0.625 0
0.375 0.5 0
0.5 0.5 0
0.375 0.625 0
0.5 0.625 0
0.25 0.625 0
0.375 0.625 0
0.25 0.75 0
0.375 0.75 0
0.375 0.625 0
0.5 0.625 0
0.375 0.75 0
0.5 0.75 0
0 0.75 0
0.125 0.75 0
0 0.875 0
0.125 0.875 0
0.125 0.75 0
0.25 0.75 0
0.125 0.875 0
0.25 0.875 0
0 0.875 0
0.125 0.875 0
0 1 0
0.125 1 0
0.125 0.875 0
0.25 0.875 0
0.125 1 0
0.25 1 0
0.25 0.75 0
0.375 0.75 0
0.25 0.875 0
0.375 0.875 0
0.375 0.75 0
0.5 0.75 0
0.375 0.875 0
0.5 0.875 0
0.25 0.875 0
0.375 0.875 0
0.25 1 0
0.375 1 0
0.375 0.875 0
0.5 0.875 0
0.375 1 0
0.5 1 0

CELLS 48 240
4	0	1	3	2
4	4	5	7	6
4	8	9	11	10
4	12	13	15	14
4	16	17	19	18
4	20	21	23	22
4	24	25	27	26
4	28	29	31	30
4	32	33	35	34
4	36	37	39	38
4	40	41	43	42
4	44	45	47	46
4	48	49	51	50
4	52	53	55	54
4	56	57	59	58
4	60	61	63	62
4	64	65	67	66
4	68	69	71	70
4	72	73	75	74
4	76	77	79	78
4	80	81	83	82
4	84	85	87	86
4	88	89	91	90
4	92	93	95	94
4	96	97	99	98
4	100	101	103	102
4	104	105	107	106
4	108	109	111	110
4	112	113	115	114
4	116	117	119	118
4	120	121	123	122
4	124	125	127	126
4	128	129	131	130
4	132	133	135	134
4	136	137	139	138
4	140	141	143	142
4	144	145	147	146
4	148	149	151	150
4	152	153	155	154
4	156	157	159	158
4	160	161	163	162
4	164	165	167	166
4	168	169	171	170
4	172	173	175	174
4	176	177	179	178
4	180	181	183	182
4	184	185	187	186
4	188	189	191	190

CELL_TYPES 48
 9 9 9 9 9 9 9 9 9 9 9 9 9 9 9 9 9 9 9 9 9 9 9 9 9 9 9 9 9 9 9 9 9 9 9 9 9 9 9 9 9 9 9 9 9 9 9 9
POINT_DATA 192
SCALARS solution double 1
LOOKUP_TABLE default
0 0.104535 0 0.102645 0.104535 0.212643 0.102645 0.209175 0 0.102645 0 0.0968125 0.102645 0.209175 0.0968125 0.19799 0.212643 0.327221 0.209175 0.322875 0.327221 0.449807 0.322875 0.44561 0.209175 0.322875 0.19799 0.308678 0.322875 0.44561 0.308678 0.431878 0 0.0968125 0 0.0870235 0.0968125 0.19799 0.0870235 0.177667 0 0.0870235 0 0.0741583 0.0870235 0.177667 0.0741583 0.14956 0.19799 0.308678 0.177667 0.279045 0.308678 0.431878 0.279045 0.405186 0.177667 0.279045 0.14956 0.228066 0.279045 0.405186 0.228066 0.333333 0.449807 0.580236 0.44561 0.577013 0.580236 0.716892 0.577013 0.714971 0.44561 0.577013 0.431878 0.567171 0.577013 0.714971 0.567171 0.709536 0.716892 0.85753 0.714971 0.856702 0.85753 1 0.856702 1 0.714971 0.856702 0.709536 0.854688 0.856702 1 0.854688 1 0.431878 0.567171 0.405186 0.549448 0.567171 0.709536 0.549448 0.70373 0.405186 0.549448 0.333333 0.543867 0.549448 0.70373 0.543867 0.700879 0.709536 0.854688 0.70373 0.852565 0.854688 1 0.852565 1 0.70373 0.852565 0.700879 0.851683 0.852565 1 0.851683 1 0 0.0741583 0 0.060412 0.0741583 0.14956 0.060412 0.118604 0 0.060412 0 0.0484996 0.060412 0.118604 0.0484996 0.0924741 0.14956 0.228066 0.118604 0.171507 0.228066 0.333333 0.171507 0.189628 0.118604 0.171507 0.0924741 0.12415 0.171507 0.189628 0.12415 0.136243 0 0.0484996 0 0.0406534 0.0484996 0.0924741 0.0406534 0.075854 0 0.0406534 0 0.0379349 0.0406534 0.075854 0.0379349 0.0704646 0.0924741 0.12415 0.075854 0.100112 0.12415 0.136243 0.100112 0.10878 0.075854 0.100112 0.0704646 0.092543 0.100112 0.10878 0.092543 0.100387 
