# vtk DataFile Version 3.0
#This file was generated by the deal.II library on 2020/3/17 at 18:06:43
ASCII
DATASET UNSTRUCTURED_GRID

POINTS 84 double
0 0 0
0.25 0 0
0 0.25 0
0.25 0.25 0
0.25 0 0
0.5 0 0
0.25 0.25 0
0.5 0.25 0
0 0.25 0
0.25 0.25 0
0 0.5 0
0.25 0.5 0
0.5 0 0
0.75 0 0
0.5 0.25 0
0.75 0.25 0
0.75 0 0
1 0 0
0.75 0.25 0
1 0.25 0
0.75 0.25 0
1 0.25 0
0.75 0.5 0
1 0.5 0
0 0.5 0
0.25 0.5 0
0 0.75 0
0.25 0.75 0
0 0.75 0
0.25 0.75 0
0 1 0
0.25 1 0
0.25 0.75 0
0.5 0.75 0
0.25 1 0
0.5 1 0
0.25 0.25 0
0.375 0.25 0
0.25 0.375 0
0.375 0.375 0
0.375 0.25 0
0.5 0.25 0
0.375 0.375 0
0.5 0.375 0
0.25 0.375 0
0.375 0.375 0
0.25 0.5 0
0.375 0.5 0
0.375 0.375 0
0.5 0.375 0
0.375 0.5 0
0.5 0.5 0
0.5 0.25 0
0.625 0.25 0
0.5 0.375 0
0.625 0.375 0
0.625 0.25 0
0.75 0.25 0
0.625 0.375 0
0.75 0.375 0
0.5 0.375 0
0.625 0.375 0
0.5 0.5 0
0.625 0.5 0
0.625 0.375 0
0.75 0.375 0
0.625 0.5 0
0.75 0.5 0
0.25 0.5 0
0.375 0.5 0
0.25 0.625 0
0.375 0.625 0
0.375 0.5 0
0.5 0.5 0
0.375 0.625 0
0.5 0.625 0
0.25 0.625 0
0.375 0.625 0
0.25 0.75 0
0.375 0.75 0
0.375 0.625 0
0.5 0.625 0
0.375 0.75 0
0.5 0.75 0

CELLS 21 105
4	0	1	3	2
4	4	5	7	6
4	8	9	11	10
4	12	13	15	14
4	16	17	19	18
4	20	21	23	22
4	24	25	27	26
4	28	29	31	30
4	32	33	35	34
4	36	37	39	38
4	40	41	43	42
4	44	45	47	46
4	48	49	51	50
4	52	53	55	54
4	56	57	59	58
4	60	61	63	62
4	64	65	67	66
4	68	69	71	70
4	72	73	75	74
4	76	77	79	78
4	80	81	83	82

CELL_TYPES 21
 9 9 9 9 9 9 9 9 9 9 9 9 9 9 9 9 9 9 9 9 9
POINT_DATA 84
SCALARS solution double 1
LOOKUP_TABLE default
0 0.213274 0 0.190302 0.213274 0.455744 0.190302 0.434921 0 0.190302 0 0.133452 0.455744 0.723091 0.434921 0.729571 0.723091 1 0.729571 1 0.729571 1 0.733095 1 0 0.133452 0 0.0801266 0 0.0801266 0 0.0636353 0.0801266 0.130159 0.0636353 0.0885118 0.190302 0.311971 0.251877 0.287291 0.311971 0.434921 0.287291 0.396106 0.251877 0.287291 0.133452 0.246366 0.287291 0.396106 0.246366 0.333333 0.434921 0.519525 0.396106 0.528174 0.519525 0.729571 0.528174 0.571575 0.396106 0.528174 0.333333 0.507267 0.528174 0.571575 0.507267 0.733095 0.133452 0.246366 0.176548 0.184535 0.246366 0.333333 0.184535 0.207788 0.176548 0.184535 0.0801266 0.168503 0.184535 0.207788 0.168503 0.130159 
