# vtk DataFile Version 3.0
#This file was generated by the deal.II library on 2020/3/17 at 17:55:02
ASCII
DATASET UNSTRUCTURED_GRID

POINTS 48 double
0 0 0
0.25 0 0
0 0.25 0
0.25 0.25 0
0.25 0 0
0.5 0 0
0.25 0.25 0
0.5 0.25 0
0 0.25 0
0.25 0.25 0
0 0.5 0
0.25 0.5 0
0.25 0.25 0
0.5 0.25 0
0.25 0.5 0
0.5 0.5 0
0.5 0 0
0.75 0 0
0.5 0.25 0
0.75 0.25 0
0.75 0 0
1 0 0
0.75 0.25 0
1 0.25 0
0.5 0.25 0
0.75 0.25 0
0.5 0.5 0
0.75 0.5 0
0.75 0.25 0
1 0.25 0
0.75 0.5 0
1 0.5 0
0 0.5 0
0.25 0.5 0
0 0.75 0
0.25 0.75 0
0.25 0.5 0
0.5 0.5 0
0.25 0.75 0
0.5 0.75 0
0 0.75 0
0.25 0.75 0
0 1 0
0.25 1 0
0.25 0.75 0
0.5 0.75 0
0.25 1 0
0.5 1 0

CELLS 12 60
4	0	1	3	2
4	4	5	7	6
4	8	9	11	10
4	12	13	15	14
4	16	17	19	18
4	20	21	23	22
4	24	25	27	26
4	28	29	31	30
4	32	33	35	34
4	36	37	39	38
4	40	41	43	42
4	44	45	47	46

CELL_TYPES 12
 9 9 9 9 9 9 9 9 9 9 9 9
POINT_DATA 48
SCALARS solution double 1
LOOKUP_TABLE default
0 0.213858 0 0.197451 0.213858 0.449823 0.197451 0.433068 0 0.197451 0 0.149522 0.197451 0.433068 0.149522 0.333333 0.449823 0.715517 0.433068 0.704087 0.715517 1 0.704087 1 0.433068 0.704087 0.333333 0.700956 0.704087 1 0.700956 1 0 0.149522 0 0.0984622 0.149522 0.333333 0.0984622 0.133863 0 0.0984622 0 0.0706256 0.0984622 0.133863 0.0706256 0.100353 
