# vtk DataFile Version 3.0
#This file was generated by the deal.II library on 2020/3/17 at 18:06:43
ASCII
DATASET UNSTRUCTURED_GRID

POINTS 12 double
0 0 0
0.5 0 0
0 0.5 0
0.5 0.5 0
0.5 0 0
1 0 0
0.5 0.5 0
1 0.5 0
0 0.5 0
0.5 0.5 0
0 1 0
0.5 1 0

CELLS 3 15
4	0	1	3	2
4	4	5	7	6
4	8	9	11	10

CELL_TYPES 3
 9 9 9
POINT_DATA 12
SCALARS solution double 1
LOOKUP_TABLE default
0 0.458333 0 0.333333 0.458333 1 0.333333 1 0 0.333333 0 0.0833333 
