# vtk DataFile Version 3.0
#This file was generated by the deal.II library on 2020/3/18 at 17:32:13
ASCII
DATASET UNSTRUCTURED_GRID

POINTS 8836 double
-1 -1 0
-0.75 -1 0
-1 -0.75 0
-0.75 -0.75 0
-0.75 -1 0
-0.5 -1 0
-0.75 -0.75 0
-0.5 -0.75 0
-1 -0.75 0
-0.75 -0.75 0
-1 -0.5 0
-0.75 -0.5 0
-0.125 -0.375 0
0 -0.375 0
-0.125 -0.25 0
0 -0.25 0
-0.375 -0.125 0
-0.25 -0.125 0
-0.375 0 0
-0.25 0 0
0.25 -0.125 0
0.375 -0.125 0
0.25 0 0
0.375 0 0
-0.125 0.25 0
0 0.25 0
-0.125 0.375 0
0 0.375 0
-0.5 -0.75 0
-0.375 -0.75 0
-0.5 -0.625 0
-0.375 -0.625 0
-0.5 -0.625 0
-0.375 -0.625 0
-0.5 -0.5 0
-0.375 -0.5 0
-0.75 -0.5 0
-0.625 -0.5 0
-0.75 -0.375 0
-0.625 -0.375 0
-0.625 -0.5 0
-0.5 -0.5 0
-0.625 -0.375 0
-0.5 -0.375 0
0.125 -0.75 0
0.25 -0.75 0
0.125 -0.625 0
0.25 -0.625 0
0.25 -0.75 0
0.375 -0.75 0
0.25 -0.625 0
0.375 -0.625 0
0 -0.375 0
0.125 -0.375 0
0 -0.25 0
0.125 -0.25 0
-0.75 0.125 0
-0.625 0.125 0
-0.75 0.25 0
-0.625 0.25 0
-0.75 0.25 0
-0.625 0.25 0
-0.75 0.375 0
-0.625 0.375 0
-0.375 0 0
-0.25 0 0
-0.375 0.125 0
-0.25 0.125 0
-0.25 -1 0
-0.125 -1 0
-0.25 -0.875 0
-0.125 -0.875 0
-0.125 -1 0
0 -1 0
-0.125 -0.875 0
0 -0.875 0
-0.125 -0.875 0
0 -0.875 0
-0.125 -0.75 0
0 -0.75 0
-1 -0.25 0
-0.875 -0.25 0
-1 -0.125 0
-0.875 -0.125 0
-1 -0.125 0
-0.875 -0.125 0
-1 0 0
-0.875 0 0
0 -1 0
0.125 -1 0
0 -0.875 0
0.125 -0.875 0
0.125 -1 0
0.25 -1 0
0.125 -0.875 0
0.25 -0.875 0
0 -0.875 0
0.125 -0.875 0
0 -0.75 0
0.125 -0.75 0
0.125 -0.875 0
0.25 -0.875 0
0.125 -0.75 0
0.25 -0.75 0
0.25 -1 0
0.375 -1 0
0.25 -0.875 0
0.375 -0.875 0
0.375 -1 0
0.5 -1 0
0.375 -0.875 0
0.5 -0.875 0
0.25 -0.875 0
0.375 -0.875 0
0.25 -0.75 0
0.375 -0.75 0
0.375 -0.875 0
0.5 -0.875 0
0.375 -0.75 0
0.5 -0.75 0
0.5 -1 0
0.625 -1 0
0.5 -0.875 0
0.625 -0.875 0
0.625 -1 0
0.75 -1 0
0.625 -0.875 0
0.75 -0.875 0
0.5 -0.875 0
0.625 -0.875 0
0.5 -0.75 0
0.625 -0.75 0
0.625 -0.875 0
0.75 -0.875 0
0.625 -0.75 0
0.75 -0.75 0
0.75 -1 0
0.875 -1 0
0.75 -0.875 0
0.875 -0.875 0
0.875 -1 0
1 -1 0
0.875 -0.875 0
1 -0.875 0
0.875 -0.875 0
1 -0.875 0
0.875 -0.75 0
1 -0.75 0
-1 0 0
-0.875 0 0
-1 0.125 0
-0.875 0.125 0
-0.875 0 0
-0.75 0 0
-0.875 0.125 0
-0.75 0.125 0
-1 0.125 0
-0.875 0.125 0
-1 0.25 0
-0.875 0.25 0
-0.875 0.125 0
-0.75 0.125 0
-0.875 0.25 0
-0.75 0.25 0
-1 0.25 0
-0.875 0.25 0
-1 0.375 0
-0.875 0.375 0
-0.875 0.25 0
-0.75 0.25 0
-0.875 0.375 0
-0.75 0.375 0
-1 0.375 0
-0.875 0.375 0
-1 0.5 0
-0.875 0.5 0
-0.875 0.375 0
-0.75 0.375 0
-0.875 0.5 0
-0.75 0.5 0
-1 0.5 0
-0.875 0.5 0
-1 0.625 0
-0.875 0.625 0
-0.875 0.5 0
-0.75 0.5 0
-0.875 0.625 0
-0.75 0.625 0
-1 0.625 0
-0.875 0.625 0
-1 0.75 0
-0.875 0.75 0
-0.875 0.625 0
-0.75 0.625 0
-0.875 0.75 0
-0.75 0.75 0
-1 0.75 0
-0.875 0.75 0
-1 0.875 0
-0.875 0.875 0
-1 0.875 0
-0.875 0.875 0
-1 1 0
-0.875 1 0
-0.875 0.875 0
-0.75 0.875 0
-0.875 1 0
-0.75 1 0
0 0 0
0.125 0 0
0 0.125 0
0.125 0.125 0
0.125 0 0
0.25 0 0
0.125 0.125 0
0.25 0.125 0
0 0.125 0
0.125 0.125 0
0 0.25 0
0.125 0.25 0
0.125 0.125 0
0.25 0.125 0
0.125 0.25 0
0.25 0.25 0
-0.75 -0.75 0
-0.625 -0.75 0
-0.75 -0.625 0
-0.625 -0.625 0
-0.625 -0.75 0
-0.5 -0.75 0
-0.625 -0.625 0
-0.5 -0.625 0
-0.75 -0.625 0
-0.625 -0.625 0
-0.75 -0.5 0
-0.625 -0.5 0
-0.625 -0.625 0
-0.5 -0.625 0
-0.625 -0.5 0
-0.5 -0.5 0
-0.5 -1 0
-0.375 -1 0
-0.5 -0.875 0
-0.375 -0.875 0
-0.375 -1 0
-0.25 -1 0
-0.375 -0.875 0
-0.25 -0.875 0
-0.5 -0.875 0
-0.375 -0.875 0
-0.5 -0.75 0
-0.375 -0.75 0
-0.375 -0.875 0
-0.25 -0.875 0
-0.375 -0.75 0
-0.25 -0.75 0
-1 -0.5 0
-0.875 -0.5 0
-1 -0.375 0
-0.875 -0.375 0
-0.875 -0.5 0
-0.75 -0.5 0
-0.875 -0.375 0
-0.75 -0.375 0
-1 -0.375 0
-0.875 -0.375 0
-1 -0.25 0
-0.875 -0.25 0
-0.875 -0.375 0
-0.75 -0.375 0
-0.875 -0.25 0
-0.75 -0.25 0
-0.25 -0.25 0
-0.125 -0.25 0
-0.25 -0.125 0
-0.125 -0.125 0
-0.125 -0.25 0
0 -0.25 0
-0.125 -0.125 0
0 -0.125 0
-0.25 -0.125 0
-0.125 -0.125 0
-0.25 0 0
-0.125 0 0
-0.125 -0.125 0
0 -0.125 0
-0.125 0 0
0 0 0
0 -0.25 0
0.125 -0.25 0
0 -0.125 0
0.125 -0.125 0
0.125 -0.25 0
0.25 -0.25 0
0.125 -0.125 0
0.25 -0.125 0
0 -0.125 0
0.125 -0.125 0
0 0 0
0.125 0 0
0.125 -0.125 0
0.25 -0.125 0
0.125 0 0
0.25 0 0
-0.25 0 0
-0.125 0 0
-0.25 0.125 0
-0.125 0.125 0
-0.125 0 0
0 0 0
-0.125 0.125 0
0 0.125 0
-0.25 0.125 0
-0.125 0.125 0
-0.25 0.25 0
-0.125 0.25 0
-0.125 0.125 0
0 0.125 0
-0.125 0.25 0
0 0.25 0
-0.25 -0.625 0
-0.1875 -0.625 0
-0.25 -0.5625 0
-0.1875 -0.5625 0
-0.1875 -0.625 0
-0.125 -0.625 0
-0.1875 -0.5625 0
-0.125 -0.5625 0
-0.625 -0.25 0
-0.5625 -0.25 0
-0.625 -0.1875 0
-0.5625 -0.1875 0
-0.625 -0.1875 0
-0.5625 -0.1875 0
-0.625 -0.125 0
-0.5625 -0.125 0
0.375 -0.1875 0
0.4375 -0.1875 0
0.375 -0.125 0
0.4375 -0.125 0
0.375 -0.125 0
0.4375 -0.125 0
0.375 -0.0625 0
0.4375 -0.0625 0
0.375 -0.0625 0
0.4375 -0.0625 0
0.375 0 0
0.4375 0 0
0.5625 -0.25 0
0.625 -0.25 0
0.5625 -0.1875 0
0.625 -0.1875 0
0.5625 -0.1875 0
0.625 -0.1875 0
0.5625 -0.125 0
0.625 -0.125 0
0.5625 -0.125 0
0.625 -0.125 0
0.5625 -0.0625 0
0.625 -0.0625 0
0.5625 -0.0625 0
0.625 -0.0625 0
0.5625 0 0
0.625 0 0
-0.1875 0.375 0
-0.125 0.375 0
-0.1875 0.4375 0
-0.125 0.4375 0
-0.125 0.375 0
-0.0625 0.375 0
-0.125 0.4375 0
-0.0625 0.4375 0
-0.0625 0.375 0
0 0.375 0
-0.0625 0.4375 0
0 0.4375 0
-0.25 0.5625 0
-0.1875 0.5625 0
-0.25 0.625 0
-0.1875 0.625 0
-0.1875 0.5625 0
-0.125 0.5625 0
-0.1875 0.625 0
-0.125 0.625 0
-0.125 0.5625 0
-0.0625 0.5625 0
-0.125 0.625 0
-0.0625 0.625 0
-0.0625 0.5625 0
0 0.5625 0
-0.0625 0.625 0
0 0.625 0
0.375 0 0
0.4375 0 0
0.375 0.0625 0
0.4375 0.0625 0
0 0.375 0
0.0625 0.375 0
0 0.4375 0
0.0625 0.4375 0
0.25 0.25 0
0.3125 0.25 0
0.25 0.3125 0
0.3125 0.3125 0
0.4375 0.375 0
0.5 0.375 0
0.4375 0.4375 0
0.5 0.4375 0
0.375 0.4375 0
0.4375 0.4375 0
0.375 0.5 0
0.4375 0.5 0
0.4375 0.4375 0
0.5 0.4375 0
0.4375 0.5 0
0.5 0.5 0
0.5625 0 0
0.625 0 0
0.5625 0.0625 0
0.625 0.0625 0
0.5 0.3125 0
0.5625 0.3125 0
0.5 0.375 0
0.5625 0.375 0
0.5625 0.3125 0
0.625 0.3125 0
0.5625 0.375 0
0.625 0.375 0
0 0.5625 0
0.0625 0.5625 0
0 0.625 0
0.0625 0.625 0
0.3125 0.5 0
0.375 0.5 0
0.3125 0.5625 0
0.375 0.5625 0
0.3125 0.5625 0
0.375 0.5625 0
0.3125 0.625 0
0.375 0.625 0
-0.125 -0.625 0
-0.0625 -0.625 0
-0.125 -0.5625 0
-0.0625 -0.5625 0
-0.0625 -0.625 0
0 -0.625 0
-0.0625 -0.5625 0
0 -0.5625 0
-0.625 -0.125 0
-0.5625 -0.125 0
-0.625 -0.0625 0
-0.5625 -0.0625 0
-0.625 -0.0625 0
-0.5625 -0.0625 0
-0.625 0 0
-0.5625 0 0
-0.5 -0.5 0
-0.4375 -0.5 0
-0.5 -0.4375 0
-0.4375 -0.4375 0
-0.4375 -0.5 0
-0.375 -0.5 0
-0.4375 -0.4375 0
-0.375 -0.4375 0
-0.5 -0.4375 0
-0.4375 -0.4375 0
-0.5 -0.375 0
-0.4375 -0.375 0
-0.3125 -0.3125 0
-0.25 -0.3125 0
-0.3125 -0.25 0
-0.25 -0.25 0
-0.125 -0.4375 0
-0.0625 -0.4375 0
-0.125 -0.375 0
-0.0625 -0.375 0
-0.0625 -0.4375 0
0 -0.4375 0
-0.0625 -0.375 0
0 -0.375 0
-0.4375 -0.125 0
-0.375 -0.125 0
-0.4375 -0.0625 0
-0.375 -0.0625 0
-0.4375 -0.0625 0
-0.375 -0.0625 0
-0.4375 0 0
-0.375 0 0
0.6875 0.125 0
0.75 0.125 0
0.6875 0.1875 0
0.75 0.1875 0
0.6875 0.1875 0
0.75 0.1875 0
0.6875 0.25 0
0.75 0.25 0
0.625 0.25 0
0.6875 0.25 0
0.625 0.3125 0
0.6875 0.3125 0
0.6875 0.25 0
0.75 0.25 0
0.6875 0.3125 0
0.75 0.3125 0
0.625 0.3125 0
0.6875 0.3125 0
0.625 0.375 0
0.6875 0.375 0
0.6875 0.3125 0
0.75 0.3125 0
0.6875 0.375 0
0.75 0.375 0
0.75 0.375 0
0.8125 0.375 0
0.75 0.4375 0
0.8125 0.4375 0
0.8125 0.375 0
0.875 0.375 0
0.8125 0.4375 0
0.875 0.4375 0
0.75 0.4375 0
0.8125 0.4375 0
0.75 0.5 0
0.8125 0.5 0
0.8125 0.4375 0
0.875 0.4375 0
0.8125 0.5 0
0.875 0.5 0
0.125 0.6875 0
0.1875 0.6875 0
0.125 0.75 0
0.1875 0.75 0
0.1875 0.6875 0
0.25 0.6875 0
0.1875 0.75 0
0.25 0.75 0
0.25 0.625 0
0.3125 0.625 0
0.25 0.6875 0
0.3125 0.6875 0
0.3125 0.625 0
0.375 0.625 0
0.3125 0.6875 0
0.375 0.6875 0
0.25 0.6875 0
0.3125 0.6875 0
0.25 0.75 0
0.3125 0.75 0
0.3125 0.6875 0
0.375 0.6875 0
0.3125 0.75 0
0.375 0.75 0
0.375 0.75 0
0.4375 0.75 0
0.375 0.8125 0
0.4375 0.8125 0
0.4375 0.75 0
0.5 0.75 0
0.4375 0.8125 0
0.5 0.8125 0
0.375 0.8125 0
0.4375 0.8125 0
0.375 0.875 0
0.4375 0.875 0
0.4375 0.8125 0
0.5 0.8125 0
0.4375 0.875 0
0.5 0.875 0
0.625 0.625 0
0.6875 0.625 0
0.625 0.6875 0
0.6875 0.6875 0
0.75 0.5 0
0.8125 0.5 0
0.75 0.5625 0
0.8125 0.5625 0
0.9375 0.5 0
1 0.5 0
0.9375 0.5625 0
1 0.5625 0
0.5 0.75 0
0.5625 0.75 0
0.5 0.8125 0
0.5625 0.8125 0
0.5 0.9375 0
0.5625 0.9375 0
0.5 1 0
0.5625 1 0
-0.375 -0.625 0
-0.3125 -0.625 0
-0.375 -0.5625 0
-0.3125 -0.5625 0
-0.3125 -0.625 0
-0.25 -0.625 0
-0.3125 -0.5625 0
-0.25 -0.5625 0
-0.375 -0.5625 0
-0.3125 -0.5625 0
-0.375 -0.5 0
-0.3125 -0.5 0
-0.3125 -0.5625 0
-0.25 -0.5625 0
-0.3125 -0.5 0
-0.25 -0.5 0
-0.625 -0.375 0
-0.5625 -0.375 0
-0.625 -0.3125 0
-0.5625 -0.3125 0
-0.5625 -0.375 0
-0.5 -0.375 0
-0.5625 -0.3125 0
-0.5 -0.3125 0
-0.625 -0.3125 0
-0.5625 -0.3125 0
-0.625 -0.25 0
-0.5625 -0.25 0
-0.5625 -0.3125 0
-0.5 -0.3125 0
-0.5625 -0.25 0
-0.5 -0.25 0
0 -0.625 0
0.0625 -0.625 0
0 -0.5625 0
0.0625 -0.5625 0
0.0625 -0.625 0
0.125 -0.625 0
0.0625 -0.5625 0
0.125 -0.5625 0
0.125 -0.625 0
0.1875 -0.625 0
0.125 -0.5625 0
0.1875 -0.5625 0
0.1875 -0.625 0
0.25 -0.625 0
0.1875 -0.5625 0
0.25 -0.5625 0
0.25 -0.625 0
0.3125 -0.625 0
0.25 -0.5625 0
0.3125 -0.5625 0
0.3125 -0.625 0
0.375 -0.625 0
0.3125 -0.5625 0
0.375 -0.5625 0
0.25 -0.5625 0
0.3125 -0.5625 0
0.25 -0.5 0
0.3125 -0.5 0
0.3125 -0.5625 0
0.375 -0.5625 0
0.3125 -0.5 0
0.375 -0.5 0
0 -0.4375 0
0.0625 -0.4375 0
0 -0.375 0
0.0625 -0.375 0
0.0625 -0.4375 0
0.125 -0.4375 0
0.0625 -0.375 0
0.125 -0.375 0
0.125 -0.4375 0
0.1875 -0.4375 0
0.125 -0.375 0
0.1875 -0.375 0
0.5 -0.375 0
0.5625 -0.375 0
0.5 -0.3125 0
0.5625 -0.3125 0
0.5625 -0.375 0
0.625 -0.375 0
0.5625 -0.3125 0
0.625 -0.3125 0
0.5625 -0.3125 0
0.625 -0.3125 0
0.5625 -0.25 0
0.625 -0.25 0
-0.625 0 0
-0.5625 0 0
-0.625 0.0625 0
-0.5625 0.0625 0
-0.625 0.0625 0
-0.5625 0.0625 0
-0.625 0.125 0
-0.5625 0.125 0
-0.625 0.125 0
-0.5625 0.125 0
-0.625 0.1875 0
-0.5625 0.1875 0
-0.625 0.1875 0
-0.5625 0.1875 0
-0.625 0.25 0
-0.5625 0.25 0
-0.625 0.25 0
-0.5625 0.25 0
-0.625 0.3125 0
-0.5625 0.3125 0
-0.5625 0.25 0
-0.5 0.25 0
-0.5625 0.3125 0
-0.5 0.3125 0
-0.625 0.3125 0
[...]
POINT_DATA 8836
SCALARS solution double 1
LOOKUP_TABLE default
0.135335 0.173774 0.173774 0.298666 0.173774 0.22313 0.298666 0.434867 0.173774 0.298666 0.22313 0.434844 1.06817 1.07916 1.08064 1.0929 1.06817 1.08064 1.07916 1.0929 1.13667 1.15262 1.15507 1.17282 1.13667 1.15507 1.15262 1.17282 0.434867 0.504977 0.553934 0.649128 0.553934 0.649128 0.681102 0.813237 0.434844 0.55392 0.504918 0.649103 0.55392 0.681102 0.649103 0.813232 0.698722 0.730568 0.864201 0.873372 0.730568 0.770941 0.873372 0.895564 1.07916 1.09061 1.0929 1.10572 0.698654 0.864154 0.730529 0.873347 0.730529 0.873347 0.770923 0.895548 1.07916 1.0929 1.09061 1.10572 0.286505 0.324652 0.421884 0.467237 0.324652 0.367879 0.467237 0.509857 0.467237 0.509857 0.623951 0.666778 0.286505 0.421671 0.324652 0.467764 0.324652 0.467764 0.367879 0.50978 0.367879 0.416862 0.509857 0.551956 0.416862 0.472367 0.551956 0.597018 0.509857 0.551956 0.666778 0.698722 0.551956 0.597018 0.698722 0.730568 0.472367 0.535261 0.597018 0.649781 0.535261 0.606531 0.649781 0.714399 0.597018 0.649781 0.730568 0.770941 0.649781 0.714399 0.770941 0.828177 0.606531 0.687289 0.714399 0.793867 0.687289 0.778801 0.793867 0.88961 0.714399 0.793867 0.828177 0.907945 0.793867 0.88961 0.907945 1.01138 0.778801 0.882497 0.88961 1.00261 0.882497 1 1.00261 1.13315 1.00261 1.13315 1.13694 1.28403 0.367879 0.50978 0.416862 0.551859 0.50978 0.666214 0.551859 0.698654 0.416862 0.551859 0.472367 0.596989 0.551859 0.698654 0.596989 0.730529 0.472367 0.596989 0.535261 0.649769 0.596989 0.730529 0.649769 0.770923 0.535261 0.649769 0.606531 0.714393 0.649769 0.770923 0.714393 0.828168 0.606531 0.714393 0.687289 0.793864 0.714393 0.828168 0.793864 0.907941 0.687289 0.793864 0.778801 0.889609 0.793864 0.907941 0.889609 1.01138 0.778801 0.889609 0.882497 1.00261 0.882497 1.00261 1 1.13315 1.00261 1.13694 1.13315 1.28403 1.12242 1.13831 1.13831 1.15591 1.13831 1.15507 1.15591 1.17451 1.13831 1.15591 1.15507 1.17451 1.15591 1.17451 1.17451 1.1951 0.298666 0.366767 0.366755 0.457991 0.366767 0.434867 0.457991 0.553934 0.366755 0.457991 0.434844 0.55392 0.457991 0.553934 0.55392 0.681102 0.22313 0.25284 0.328999 0.374461 0.25284 0.286505 0.374461 0.421884 0.328999 0.374461 0.434867 0.504977 0.374461 0.421884 0.504977 0.569419 0.22313 0.328987 0.25284 0.374409 0.328987 0.434844 0.374409 0.504918 0.25284 0.374409 0.286505 0.421671 0.374409 0.504918 0.421671 0.569307 1.06892 1.08064 1.08064 1.09367 1.08064 1.0929 1.09367 1.1073 1.08064 1.09367 1.0929 1.1073 1.09367 1.1073 1.1073 1.12242 1.0929 1.10572 1.1073 1.12161 1.10572 1.11919 1.12161 1.13667 1.1073 1.12161 1.12242 1.13831 1.12161 1.13667 1.13831 1.15507 1.0929 1.1073 1.10572 1.12161 1.1073 1.12242 1.12161 1.13831 1.10572 1.12161 1.11919 1.13667 1.12161 1.13831 1.13667 1.15507 0.738366 0.775884 0.834153 0.87873 0.775884 0.807012 0.87873 0.914467 0.738357 0.834157 0.775928 0.878754 0.775928 0.878754 0.807106 0.914509 1.14301 1.15088 1.15262 1.16096 1.15262 1.16096 1.16272 1.17139 1.16272 1.17139 1.17282 1.18209 1.261 1.35086 1.28694 1.39626 1.28694 1.39626 1.31003 1.44283 1.31003 1.44283 1.33664 1.49468 1.33664 1.49468 1.37341 1.5567 1.14301 1.15262 1.15088 1.16096 1.15262 1.16272 1.16096 1.17139 1.16272 1.17282 1.17139 1.18209 1.261 1.28694 1.35086 1.39626 1.28694 1.31003 1.39626 1.44283 1.31003 1.33664 1.44283 1.49468 1.33664 1.37341 1.49468 1.5567 1.17282 1.18209 1.18343 1.19322 1.17282 1.18343 1.18209 1.19322 1.1951 1.20593 1.20593 1.21726 1.6221 1.8632 1.84288 2.07397 1.6221 1.84288 1.8632 2.07397 1.84288 2.07397 2.07397 2.29817 1.37341 1.5567 1.42721 1.63389 1.67034 1.91917 1.8632 2.10611 1.91917 2.1631 2.10611 2.35072 1.37341 1.42721 1.5567 1.63389 1.67034 1.8632 1.91917 2.10611 1.91917 2.10611 2.1631 2.35072 0.807012 0.830808 0.914467 0.938743 0.830808 0.847644 0.938743 0.952242 0.807106 0.914509 0.830916 0.938785 0.830916 0.938785 0.847697 0.952269 0.681102 0.747169 0.747167 0.82408 0.747169 0.813237 0.82408 0.90265 0.747167 0.82408 0.813232 0.902648 1.05789 1.06326 1.06326 1.06892 1.06208 1.06728 1.06817 1.07366 1.06728 1.07259 1.07366 1.07916 1.06208 1.06817 1.06728 1.07366 1.06728 1.07366 1.07259 1.07916 1.94932 2.16587 2.08139 2.31089 2.08139 2.31089 2.23461 2.47341 1.99618 2.23461 2.1631 2.40722 2.23461 2.47341 2.40722 2.65369 2.1631 2.40722 2.35072 2.59844 2.40722 2.65369 2.59844 2.85133 2.85133 3.11136 3.06585 3.33379 3.11136 3.38061 3.33379 3.61253 3.06585 3.33379 3.29684 3.57244 3.33379 3.61253 3.57244 3.86123 1.94932 2.08139 2.16587 2.31089 2.08139 2.23461 2.31089 2.47341 1.99618 2.1631 2.23461 2.40722 2.1631 2.35072 2.40722 2.59844 2.23461 2.40722 2.47341 2.65369 2.40722 2.59844 2.65369 2.85133 2.85133 3.06585 3.11136 3.33379 3.06585 3.29684 3.33379 3.57244 3.11136 3.33379 3.38061 3.61253 3.33379 3.57244 3.61253 3.86123 3.26484 3.52878 3.52878 3.80023 3.29684 3.57244 3.54377 3.82814 4.16338 4.48169 4.43971 4.77073 3.29684 3.54377 3.57244 3.82814 4.16338 4.43971 4.48169 4.77073 0.649128 0.696165 0.731183 0.783844 0.696165 0.738366 0.783844 0.834153 0.731183 0.783844 0.813237 0.879068 0.783844 0.834153 0.879068 0.939226 0.649103 0.731167 0.696137 0.783834 0.731167 0.813232 0.783834 0.879065 0.696137 0.783834 0.738357 0.834157 0.783834 0.879065 0.834157 0.939229 0.847644 0.858634 0.952242 0.958683 0.858634 0.864201 0.958683 0.957905 0.864201 0.868786 0.957905 0.952503 0.868786 0.873372 0.952503 0.948657 0.873372 0.884468 0.948657 0.949265 0.884468 0.895564 0.949265 0.957244 0.948657 0.949265 1.02382 1.01423 0.949265 0.957244 1.01423 1.01504 1.07259 1.07788 1.07916 1.08489 1.07788 1.08334 1.08489 1.09061 1.08334 1.08893 1.09061 1.09655 1.14231 1.18977 1.17053 1.22856 1.18977 1.25396 1.22856 1.30388 1.22856 1.30388 1.261 1.35086 0.847697 0.952269 0.858632 0.958686 0.858632 0.958686 0.864154 0.957892 0.864154 0.957892 0.868751 0.952484 0.868751 0.952484 0.873347 0.94864 0.873347 0.94864 0.884448 0.949251 0.94864 1.02381 0.949251 1.01422 0.884448 0.949251 0.895548 0.957233 0.949251 1.01422 0.957233 1.01503 1.07259 1.07916 1.07788 1.08489 1.07788 1.08489 1.08334 1.09061 1.08334 1.09061 1.08893 1.09655 1.1423 1.17053 1.18977 1.22856 1.18977 1.22856 1.25395 1.30387 1.22856 1.261 1.30387 1.35086 1.44283 1.58338 1.49468 1.6563 1.58338 1.73121 1.6563 1.82246 1.49468 1.6563 1.5567 1.73931 1.6563 1.82246 1.73931 1.92369 1.44283 1.49468 1.58338 1.6563 1.49468 1.5567 1.6563 1.73931 1.58338 1.6563 1.73121 1.82246 1.6563 1.73931 1.82246 1.92369 1.17451 1.1843 1.1848 1.19494 1.1843 1.19432 1.19494 1.2055 1.1848 1.19494 1.1951 1.20593 1.19494 1.2055 1.20593 1.21703 1.17451 1.1848 1.1843 1.19494 1.1848 1.1951 1.19494 1.20593 1.1843 1.19494 1.19432 1.2055 1.19494 1.20593 1.2055 1.21703 1.5567 1.73931 1.63389 1.83597 1.73931 1.92369 1.83597 2.03741 1.63389 1.83597 1.73119 1.94932 1.83597 2.03741 1.94932 2.16587 1.8632 2.10611 2.07397 2.31199 2.10611 2.35072 2.31199 2.55627 2.07397 2.31199 2.29817 2.53325 2.31199 2.55627 2.53325 2.77801 2.35072 2.59844 2.55627 2.80719 2.59844 2.85133 2.80719 3.06585 2.55627 2.80719 2.77801 3.03232 2.80719 3.06585 3.03232 3.29684 2.47341 2.71568 2.65369 2.90534 2.71568 2.96422 2.90534 3.16463 2.65369 2.90534 2.85133 3.11136 2.90534 3.16463 3.11136 3.38061 2.96422 3.22164 3.16463 3.43391 3.22164 3.49034 3.43391 3.71545 3.16463 3.43391 3.38061 3.66116 3.43391 3.71545 3.66116 3.95508 3.38061 3.66116 3.61253 3.90406 3.66116 3.95508 3.90406 4.21016 3.90406 4.21016 4.16338 4.48169 1.5567 1.63389 1.73931 1.83597 1.63389 1.73119 1.83597 1.94932 1.73931 1.83597 1.92369 2.03741 1.83597 1.94932 2.03741 2.16587 1.8632 2.07397 2.10611 2.31199 2.07397 2.29817 2.31199 2.53325 2.10611 2.31199 2.35072 2.55627 2.31199 2.53325 2.55627 2.77801 2.35072 2.55627 2.59844 2.80719 2.55627 2.77801 2.80719 3.03232 2.59844 2.80719 2.85133 3.06585 2.80719 3.03232 3.06585 3.29684 2.47341 2.65369 2.71568 2.90534 2.65369 2.85133 2.90534 3.11136 2.71568 2.90534 2.96422 3.16463 2.90534 3.11136 3.16463 3.38061 2.96422 3.16463 3.22164 3.43391 3.16463 3.38061 3.43391 3.66116 3.22164 3.43391 3.49034 3.71545 3.43391 3.66116 3.71545 3.95508 3.38061 3.61253 3.66116 3.90406 3.66116 3.90406 3.95508 4.21016 3.90406 4.16338 4.21016 4.48169 2.29817 2.53325 2.53325 2.76777 2.53325 2.77801 2.76777 3.01445 2.53325 2.76777 2.77801 3.01445 2.76777 3.01445 3.01445 3.26484 2.77801 3.03232 3.01445 3.27306 3.03232 3.29684 3.27306 3.54377 3.01445 3.27306 3.26484 3.52878 3.27306 3.54377 3.52878 3.80734 2.77801 3.01445 3.03232 3.27306 3.01445 3.26484 3.27306 3.52878 3.03232 3.27306 3.29684 3.54377 3.27306 3.52878 3.54377 3.80734 0.895564 0.916596 0.957244 0.97413 0.916596 0.945349 0.97413 1.00148 0.957244 0.97413 1.01504 1.02811 0.97413 1.00148 1.02811 1.05436 0.945349 0.982455 1.00148 1.0392 0.982455 1.02784 1.0392 1.08696 1.00148 1.0392 1.05436 1.09365 1.0392 1.08696 1.09365 1.14493 1.01504 1.02811 1.06733 1.07535 1.02811 1.05436 1.07535 1.10199 1.05436 1.09365 1.10199 1.14441 1.09365 1.14493 1.14441 1.20086 1.10199 1.14441 1.14231 1.18977 1.14441 1.20086 1.18977 1.25396 1.14493 1.20711 1.20086 1.26969 1.20711 1.27911 1.26969 1.34933 1.20086 1.26969 1.25396 1.33163 1.26969 1.34933 1.33163 1.42075 1.25396 1.33163 1.30388 1.39297 1.33163 1.42075 1.39297 1.49367 1.30388 1.39297 1.35086 1.45432 1.39297 1.49367 1.45432 1.56882 1.56882 1.69293 1.64741 1.78642 1.69293 1.82589 1.78642 1.93375 1.64741 1.78642 1.73121 1.88628 1.78642 1.93375 1.88628 2.04889 1.82589 1.9673 1.93375 2.08939 1.9673 2.117 2.08939 2.25353 1.93375 2.08939 2.04889 2.21955 2.08939 2.25353 2.21955 2.39888 1.73121 1.88628 1.82246 1.99419 1.88628 2.04889 1.99419 2.17255 1.82246 1.99419 1.92369 2.11199 1.99419 2.17255 2.11199 2.30608 2.04889 2.21955 2.17255 2.35865 2.21955 2.39888 2.35865 2.55359 2.17255 2.35865 2.30608 2.50765 2.35865 2.55359 2.50765 2.71828 0.895548 0.957233 0.916585 0.97412 0.957233 1.01503 0.97412 1.0281 0.916585 0.97412 0.945341 1.00147 0.97412 1.0281 1.00147 1.05435 1.01503 1.06733 1.0281 1.07534 1.0281 1.07534 1.05435 1.10199 0.945341 1.00147 0.982449 1.03919 1.00147 1.05435 1.03919 1.09365 0.982449 1.03919 1.02783 1.08696 1.03919 1.09365 1.08696 1.14493 1.05435 1.10199 1.09365 1.1444 1.10199 1.1423 1.1444 1.18977 1.09365 1.1444 1.14493 1.20085 1.1444 1.18977 1.20085 1.25395 1.14493 1.20085 1.2071 1.26969 1.20085 1.25395 1.26969 1.33163 1.2071 1.26969 1.27911 1.34932 1.26969 1.33163 1.34932 1.42075 1.25395 1.30387 1.33163 1.39297 1.30387 1.35086 1.39297 1.45432 1.33163 1.39297 1.42075 1.49367 1.39297 1.45432 1.49367 1.56882 1.56882 1.64741 1.69293 1.78642 1.64741 1.73121 1.78642 1.88628 1.69293 1.78642 1.82589 1.93375 1.78642 1.88628 1.93375 2.04889 1.73121 1.82246 1.88628 1.99419 1.82246 1.92369 1.99419 2.11199 1.88628 1.99419 2.04889 2.17255 1.99419 2.11199 2.17255 2.30608 1.82589 1.93375 1.9673 2.08939 1.93375 2.04889 2.08939 2.21955 1.9673 2.08939 2.117 2.25353 2.08939 2.21955 2.25353 2.39888 2.04889 2.17255 2.21955 2.35865 2.17255 2.30608 2.35865 2.50765 2.21955 2.35865 2.39888 2.55359 2.35865 2.50765 2.55359 2.71828 1.92369 2.11199 2.03741 2.24152 2.11199 2.30608 2.24152 2.45083 2.03741 2.24152 2.16587 2.38448 2.24152 2.45083 2.38448 2.60808 2.30608 2.50765 2.45083 2.66753 2.50765 2.71828 2.66753 2.8936 2.45083 2.66753 2.60808 2.83923 2.66753 2.8936 2.83923 3.08022 2.16587 2.38448 2.31089 2.54223 2.38448 2.60808 2.54223 2.77892 2.31089 2.54223 2.47341 2.71568 2.54223 2.77892 2.71568 2.96422 2.60808 2.83923 2.77892 3.02366 2.83923 3.08022 3.02366 3.27887 2.77892 3.02366 2.96422 3.22164 3.02366 3.27887 3.22164 3.49034 1.92369 2.03741 2.11199 2.24152 2.03741 2.16587 2.24152 2.38448 2.11199 2.24152 2.30608 2.45083 2.24152 2.38448 2.45083 2.60808 2.16587 2.31089 2.38448 2.54223 2.31089 2.47341 2.54223 2.71568 2.38448 2.54223 2.60808 2.77892 2.54223 2.71568 2.77892 2.96422 2.30608 2.45083 2.50765 2.66753 2.45083 2.60808 2.66753 2.83923 2.50765 2.66753 2.71828 2.8936 2.66753 2.83923 2.8936 3.08022 2.60808 2.77892 2.83923 3.02366 2.77892 2.96422 3.02366 3.22164 2.83923 3.02366 3.08022 3.27887 3.02366 3.22164 3.27887 3.49034 1.42075 1.51986 1.49367 1.60443 1.51986 1.62793 1.60443 1.72423 1.49367 1.60443 1.56882 1.69293 1.60443 1.72423 1.69293 1.82589 1.42075 1.49367 1.51986 1.60442 1.49367 1.56882 1.60442 1.69293 1.51986 1.60442 1.62793 1.72423 1.60442 1.69293 1.72423 1.82589 0.569419 0.598749 0.650502 0.683151 0.598749 0.623951 0.683151 0.7111 0.650502 0.683151 0.738366 0.775884 0.683151 0.7111 0.775884 0.807012 0.623951 0.645365 0.7111 0.734292 0.645365 0.666778 0.734292 0.752753 0.7111 0.734292 0.807012 0.830808 0.734292 0.752753 0.830808 0.847644 0.569307 0.650436 0.59845 0.683164 0.650436 0.738357 0.683164 0.775928 0.59845 0.683164 0.624152 0.71135 0.683164 0.775928 0.71135 0.807106 0.624152 0.71135 0.646964 0.734525 0.71135 0.807106 0.734525 0.830916 0.646964 0.734525 0.666214 0.752879 0.734525 0.830916 0.752879 0.847697 1.05763 1.06287 1.06326 1.06875 1.06287 1.06817 1.06875 1.07441 1.06326 1.06875 1.06892 1.07478 1.06875 1.07441 1.07478 1.08064 1.05763 1.06326 1.06287 1.06875 1.06326 1.06892 1.06875 1.07478 1.06287 1.06875 1.06817 1.07441 1.06875 1.07478 1.07441 1.08064 1.11919 1.12623 1.12793 1.13531 1.12623 1.13351 1.13531 1.14301 1.12793 1.13531 1.13667 1.14465 1.13531 1.14301 1.14465 1.15262 1.35086 1.45432 1.39626 1.51705 1.45432 1.56882 1.51705 1.64741 1.39626 1.51705 1.44283 1.58338 1.51705 1.64741 1.58338 1.73121 1.11919 1.12793 1.12623 1.13531 1.12793 1.13667 1.13531 1.14465 1.12623 1.13531 1.13351 1.14301 1.13531 1.14465 1.14301 1.15262 1.35086 1.39626 1.45432 1.51705 1.39626 1.44283 1.51705 1.58338 1.45432 1.51705 1.56882 1.64741 1.51705 1.58338 1.64741 1.73121 1.15507 1.16394 1.16479 1.17393 1.16394 1.17282 1.17393 1.18343 1.16479 1.17393 1.17451 1.1843 1.17393 1.18343 1.1843 1.19432 1.15507 1.16479 1.16394 1.17393 1.16479 1.17451 1.17393 1.1843 1.16394 1.17393 1.17282 1.18343 1.17393 1.1843 1.18343 1.19432 0.504977 0.537198 0.577053 0.614272 0.537198 0.569419 0.614272 0.650502 0.577053 0.614272 0.649128 0.696165 0.614272 0.650502 0.696165 0.738366 0.504918 0.57701 0.537112 0.614219 0.57701 0.649103 0.614219 0.696137 0.537112 0.614219 0.569307 0.650436 0.614219 0.696137 0.650436 0.738357 0.666778 0.68275 0.752753 0.767549 0.68275 0.698722 0.767549 0.781461 0.752753 0.767549 0.847644 0.858634 0.767549 0.781461 0.858634 0.864201 0.770941 0.799559 0.833252 0.857374 0.799559 0.828177 0.857374 0.887822 0.833252 0.857374 0.895564 0.916596 0.857374 0.887822 0.916596 0.945349 0.828177 0.868061 0.887822 0.924443 0.868061 0.907945 0.924443 0.96859 0.887822 0.924443 0.945349 0.982455 0.924443 0.96859 0.982455 1.02784 0.907945 0.959664 0.96859 1.01902 0.959664 1.01138 1.01902 1.07648 0.96859 1.01902 1.02784 1.08132 1.01902 1.07648 1.08132 1.14243 1.02784 1.08132 1.08696 1.14415 1.08132 1.14243 1.14415 1.2101 1.08696 1.14415 1.14493 1.20711 1.14415 1.2101 1.20711 1.27911 1.09061 1.09655 1.09817 1.10438 1.09655 1.10257 1.10438 1.11079 1.09817 1.10438 1.10572 1.11246 1.10438 1.11079 1.11246 1.11919 1.10257 1.10872 1.11079 1.11729 1.10872 1.11374 1.11729 1.12409 1.11079 1.11729 1.11919 1.12623 1.11729 1.12409 1.12623 1.13351 0.666214 0.752879 0.682434 0.767439 0.752879 0.847697 0.767439 0.858632 0.682434 0.767439 0.698654 0.781404 0.767439 0.858632 0.781404 0.864154 0.770923 0.833236 0.799546 0.857362 0.833236 0.895548 0.857362 0.916585 0.799546 0.857362 0.828168 0.887812 0.857362 0.916585 0.887812 0.945341 1.09061 1.09817 1.09655 1.10438 1.09817 1.10572 1.10438 1.11246 1.09655 1.10438 1.10257 1.11079 1.10438 1.11246 1.11079 1.11919 1.10257 1.11079 1.10872 1.11729 1.11079 1.11919 1.11729 1.12623 1.10872 1.11729 1.11374 1.12409 1.11729 1.12623 1.12409 1.13351 0.828168 0.887812 0.868055 0.924436 0.887812 0.945341 0.924436 0.982449 0.868055 0.924436 0.907941 0.968585 0.924436 0.982449 0.968585 1.02783 0.907941 0.968585 0.95966 1.01902 0.968585 1.02783 1.01902 1.08132 0.95966 1.01902 1.01138 1.07647 1.01902 1.08132 1.07647 1.14242 1.02783 1.08696 1.08132 1.14415 1.08696 1.14493 1.14415 1.2071 1.08132 1.14415 1.14242 1.21009 1.14415 1.2071 1.21009 1.27911 1.01138 1.07215 1.07648 1.13998 1.07215 1.13694 1.13998 1.21018 1.07648 1.13998 1.14243 1.21082 1.13998 1.21018 1.21082 1.28599 1.13694 1.21048 1.21018 1.28586 1.21048 1.28403 1.28586 1.36684 1.21018 1.28586 1.28599 1.36753 1.28586 1.36684 1.36753 1.45499 1.14243 1.21082 1.2101 1.28412 1.21082 1.28599 1.28412 1.3656 1.2101 1.28412 1.27911 1.36 1.28412 1.3656 1.36 1.44898 1.28599 1.36753 1.3656 1.45399 1.36753 1.45499 1.45399 1.54883 1.3656 1.45399 1.44898 1.5454 1.45399 1.54883 1.5454 1.64872 1.27911 1.36 1.34933 1.43852 1.36 1.44898 1.43852 1.53633 1.34933 1.43852 1.42075 1.51986 1.43852 1.53633 1.51986 1.62793 1.44898 1.5454 1.53633 1.64203 1.5454 1.64872 1.64203 1.75505 1.53633 1.64203 1.62793 1.74423 1.64203 1.75505 1.74423 1.86825 1.62793 1.74423 1.72423 1.85247 1.74423 1.86825 1.85247 1.98874 1.72423 1.85247 1.82589 1.9673 1.85247 1.98874 1.9673 2.117 1.01138 1.07647 1.07215 1.13997 1.07647 1.14242 1.13997 1.21082 1.07215 1.13997 1.13694 1.21018 1.13997 1.21082 1.21018 1.28599 1.14242 1.21009 1.21082 1.28411 1.21009 1.27911 1.28411 1.36 1.21082 1.28411 1.28599 1.3656 1.28411 1.36 1.3656 1.44898 1.13694 1.21018 1.21048 1.28586 1.21018 1.28599 1.28586 1.36753 1.21048 1.28586 1.28403 1.36684 1.28586 1.36753 1.36684 1.45499 1.28599 1.3656 1.36753 1.45399 1.3656 1.44898 1.45399 1.5454 1.36753 1.45399 1.45499 1.54883 1.45399 1.5454 1.54883 1.64872 1.27911 1.34932 1.36 1.43852 1.34932 1.42075 1.43852 1.51986 1.36 1.43852 1.44898 1.53633 1.43852 1.51986 1.53633 1.62793 1.44898 1.53633 1.5454 1.64203 1.53633 1.62793 1.64203 1.74423 1.5454 1.64203 1.64872 1.75505 1.64203 1.74423 1.75505 1.86825 1.62793 1.72423 1.74423 1.85247 1.72423 1.82589 1.85247 1.9673 1.74423 1.85247 1.86825 1.98874 1.85247 1.9673 1.98874 2.117 0.421884 0.444561 0.495652 0.519802 0.444561 0.467237 0.519802 0.545594 0.495652 0.519802 0.569419 0.598749 0.519802 0.545594 0.598749 0.623951 0.421671 0.495489 0.444718 0.519534 0.495489 0.569307 0.519534 0.59845 0.444718 0.519534 0.467764 0.543353 0.519534 0.59845 0.543353 0.624152 0.467764 0.543353 0.488772 0.565652 0.543353 0.624152 0.565652 0.646964 0.488772 0.565652 0.50978 0.587997 0.565652 0.646964 0.587997 0.666214 0.88961 0.946112 0.950496 1.00695 0.946112 1.00261 1.00695 1.06978 0.950496 1.00695 1.01138 1.07215 1.00695 1.06978 1.07215 1.13694 0.889609 0.950494 0.94611 1.00695 0.950494 1.01138 1.00695 1.07215 0.94611 1.00695 1.00261 1.06978 1.00695 1.07215 1.06978 1.13694 0.834153 0.856442 0.88669 0.910795 0.856442 0.87873 0.910795 0.933784 0.88669 0.910795 0.939226 0.967439 0.910795 0.933784 0.967439 0.992666 0.834157 0.886693 0.856456 0.910805 0.886693 0.939229 0.910805 0.967444 0.856456 0.910805 0.878754 0.9338 0.910805 0.967444 0.9338 0.992674 1.16096 1.1652 1.16618 1.17065 1.16618 1.17065 1.17139 1.1759 1.17139 1.1759 1.17674 1.18126 1.17674 1.18126 1.18209 1.18676 1.24703 1.31003 1.25151 1.32333 1.25151 1.32333 1.25922 1.33664 1.25922 1.33664 1.26951 1.35503 1.26951 1.35503 1.28269 1.37341 1.16096 1.16618 1.1652 1.17065 1.16618 1.17139 1.17065 1.1759 1.17139 1.17674 1.1759 1.18126 1.17674 1.18209 1.18126 1.18676 1.24703 1.25151 1.31003 1.32333 1.25151 1.25922 1.32333 1.33664 1.25922 1.26951 1.33664 1.35503 1.26951 1.28269 1.35503 1.37341 1.18209 1.18676 1.18765 1.19243 1.18765 1.19243 1.19322 1.19829 1.19322 1.19829 1.19894 1.20413 1.18209 1.18765 1.18676 1.19243 1.18765 1.19322 1.19243 1.19829 1.19322 1.19894 1.19829 1.20413 1.21726 1.22306 1.22306 1.22908 1.37082 1.50183 1.45342 1.58264 1.45342 1.58264 1.54451 1.67034 1.3918 1.51671 1.50226 1.6221 1.4162 1.54451 1.51671 1.64116 1.54451 1.67034 1.64116 1.76677 1.51671 1.64116 1.6221 1.74265 1.64116 1.76677 1.74265 1.8632 1.3918 1.50226 1.51671 1.6221 1.37082 1.45342 1.50183 1.58264 1.45342 1.54451 1.58264 1.67034 1.4162 1.51671 1.54451 1.64116 1.51671 1.6221 1.64116 1.74265 1.54451 1.64116 1.67034 1.76677 1.64116 1.74265 1.76677 1.8632 1.38303 1.50226 1.50226 1.6158 1.50226 1.6221 1.6158 1.73249 1.50226 1.6158 1.6221 1.73249 1.6158 1.73249 1.73249 1.84288 1.28269 1.37341 1