# vtk DataFile Version 3.0
#This file was generated by the deal.II library on 2020/3/18 at 17:32:13
ASCII
DATASET UNSTRUCTURED_GRID

POINTS 2092 double
-1 -1 0
-0.75 -1 0
-1 -0.75 0
-0.75 -0.75 0
-0.75 -1 0
-0.5 -1 0
-0.75 -0.75 0
-0.5 -0.75 0
-1 -0.75 0
-0.75 -0.75 0
-1 -0.5 0
-0.75 -0.5 0
-0.75 -0.75 0
-0.5 -0.75 0
-0.75 -0.5 0
-0.5 -0.5 0
-0.5 -1 0
-0.25 -1 0
-0.5 -0.75 0
-0.25 -0.75 0
-0.25 -1 0
0 -1 0
-0.25 -0.75 0
0 -0.75 0
-1 -0.5 0
-0.75 -0.5 0
-1 -0.25 0
-0.75 -0.25 0
-1 -0.25 0
-0.75 -0.25 0
-1 0 0
-0.75 0 0
-0.25 -0.25 0
0 -0.25 0
-0.25 0 0
0 0 0
0 -1 0
0.25 -1 0
0 -0.75 0
0.25 -0.75 0
0.25 -1 0
0.5 -1 0
0.25 -0.75 0
0.5 -0.75 0
0.5 -1 0
0.75 -1 0
0.5 -0.75 0
0.75 -0.75 0
0.75 -1 0
1 -1 0
0.75 -0.75 0
1 -0.75 0
0 -0.25 0
0.25 -0.25 0
0 0 0
0.25 0 0
-1 0 0
-0.75 0 0
-1 0.25 0
-0.75 0.25 0
-1 0.25 0
-0.75 0.25 0
-1 0.5 0
-0.75 0.5 0
-0.25 0 0
0 0 0
-0.25 0.25 0
0 0.25 0
-1 0.5 0
-0.75 0.5 0
-1 0.75 0
-0.75 0.75 0
-1 0.75 0
-0.75 0.75 0
-1 1 0
-0.75 1 0
0 0 0
0.25 0 0
0 0.25 0
0.25 0.25 0
-0.25 -0.75 0
-0.125 -0.75 0
-0.25 -0.625 0
-0.125 -0.625 0
-0.125 -0.75 0
0 -0.75 0
-0.125 -0.625 0
0 -0.625 0
-0.75 -0.25 0
-0.625 -0.25 0
-0.75 -0.125 0
-0.625 -0.125 0
-0.75 -0.125 0
-0.625 -0.125 0
-0.75 0 0
-0.625 0 0
-0.25 -0.375 0
-0.125 -0.375 0
-0.25 -0.25 0
-0.125 -0.25 0
-0.125 -0.375 0
0 -0.375 0
-0.125 -0.25 0
0 -0.25 0
-0.375 -0.25 0
-0.25 -0.25 0
-0.375 -0.125 0
-0.25 -0.125 0
-0.375 -0.125 0
-0.25 -0.125 0
-0.375 0 0
-0.25 0 0
0.25 -0.25 0
0.375 -0.25 0
0.25 -0.125 0
0.375 -0.125 0
0.25 -0.125 0
0.375 -0.125 0
0.25 0 0
0.375 0 0
0.625 -0.25 0
0.75 -0.25 0
0.625 -0.125 0
0.75 -0.125 0
0.625 -0.125 0
0.75 -0.125 0
0.625 0 0
0.75 0 0
-0.25 0.25 0
-0.125 0.25 0
-0.25 0.375 0
-0.125 0.375 0
-0.125 0.25 0
0 0.25 0
-0.125 0.375 0
0 0.375 0
-0.25 0.625 0
-0.125 0.625 0
-0.25 0.75 0
-0.125 0.75 0
-0.125 0.625 0
0 0.625 0
-0.125 0.75 0
0 0.75 0
0.25 0 0
0.375 0 0
0.25 0.125 0
0.375 0.125 0
0.25 0.125 0
0.375 0.125 0
0.25 0.25 0
0.375 0.25 0
0 0.25 0
0.125 0.25 0
0 0.375 0
0.125 0.375 0
0.125 0.25 0
0.25 0.25 0
0.125 0.375 0
0.25 0.375 0
0.625 0 0
0.75 0 0
0.625 0.125 0
0.75 0.125 0
0.5 0.375 0
0.625 0.375 0
0.5 0.5 0
0.625 0.5 0
0.625 0.375 0
0.75 0.375 0
0.625 0.5 0
0.75 0.5 0
0.75 0.25 0
0.875 0.25 0
0.75 0.375 0
0.875 0.375 0
0.875 0.25 0
1 0.25 0
0.875 0.375 0
1 0.375 0
0.875 0.375 0
1 0.375 0
0.875 0.5 0
1 0.5 0
0 0.625 0
0.125 0.625 0
0 0.75 0
0.125 0.75 0
0.375 0.5 0
0.5 0.5 0
0.375 0.625 0
0.5 0.625 0
0.375 0.625 0
0.5 0.625 0
0.375 0.75 0
0.5 0.75 0
0.25 0.75 0
0.375 0.75 0
0.25 0.875 0
0.375 0.875 0
0.25 0.875 0
0.375 0.875 0
0.25 1 0
0.375 1 0
0.375 0.875 0
0.5 0.875 0
0.375 1 0
0.5 1 0
0.5 0.5 0
0.625 0.5 0
0.5 0.625 0
0.625 0.625 0
0.625 0.5 0
0.75 0.5 0
0.625 0.625 0
0.75 0.625 0
0.5 0.625 0
0.625 0.625 0
0.5 0.75 0
0.625 0.75 0
-0.5 -0.75 0
-0.375 -0.75 0
-0.5 -0.625 0
-0.375 -0.625 0
-0.375 -0.75 0
-0.25 -0.75 0
-0.375 -0.625 0
-0.25 -0.625 0
-0.5 -0.625 0
-0.375 -0.625 0
-0.5 -0.5 0
-0.375 -0.5 0
-0.75 -0.5 0
-0.625 -0.5 0
-0.75 -0.375 0
-0.625 -0.375 0
-0.625 -0.5 0
-0.5 -0.5 0
-0.625 -0.375 0
-0.5 -0.375 0
-0.75 -0.375 0
-0.625 -0.375 0
-0.75 -0.25 0
-0.625 -0.25 0
0 -0.75 0
0.125 -0.75 0
0 -0.625 0
0.125 -0.625 0
0.125 -0.75 0
0.25 -0.75 0
0.125 -0.625 0
0.25 -0.625 0
0.25 -0.75 0
0.375 -0.75 0
0.25 -0.625 0
0.375 -0.625 0
0.375 -0.75 0
0.5 -0.75 0
0.375 -0.625 0
0.5 -0.625 0
0.375 -0.625 0
0.5 -0.625 0
0.375 -0.5 0
0.5 -0.5 0
0.5 -0.75 0
0.625 -0.75 0
0.5 -0.625 0
0.625 -0.625 0
0.625 -0.75 0
0.75 -0.75 0
0.625 -0.625 0
0.75 -0.625 0
0.5 -0.625 0
0.625 -0.625 0
0.5 -0.5 0
0.625 -0.5 0
0.625 -0.625 0
0.75 -0.625 0
0.625 -0.5 0
0.75 -0.5 0
0 -0.375 0
0.125 -0.375 0
0 -0.25 0
0.125 -0.25 0
0.125 -0.375 0
0.25 -0.375 0
0.125 -0.25 0
0.25 -0.25 0
0.375 -0.5 0
0.5 -0.5 0
0.375 -0.375 0
0.5 -0.375 0
0.25 -0.375 0
0.375 -0.375 0
0.25 -0.25 0
0.375 -0.25 0
0.5 -0.5 0
0.625 -0.5 0
0.5 -0.375 0
0.625 -0.375 0
0.625 -0.5 0
0.75 -0.5 0
0.625 -0.375 0
0.75 -0.375 0
0.625 -0.375 0
0.75 -0.375 0
0.625 -0.25 0
0.75 -0.25 0
0.75 -0.25 0
0.875 -0.25 0
0.75 -0.125 0
0.875 -0.125 0
0.875 -0.25 0
1 -0.25 0
0.875 -0.125 0
1 -0.125 0
0.75 -0.125 0
0.875 -0.125 0
0.75 0 0
0.875 0 0
0.875 -0.125 0
1 -0.125 0
0.875 0 0
1 0 0
-0.75 0 0
-0.625 0 0
-0.75 0.125 0
-0.625 0.125 0
-0.75 0.125 0
-0.625 0.125 0
-0.75 0.25 0
-0.625 0.25 0
-0.75 0.25 0
-0.625 0.25 0
-0.75 0.375 0
-0.625 0.375 0
-0.75 0.375 0
-0.625 0.375 0
-0.75 0.5 0
-0.625 0.5 0
-0.625 0.375 0
-0.5 0.375 0
-0.625 0.5 0
-0.5 0.5 0
-0.375 0 0
-0.25 0 0
-0.375 0.125 0
-0.25 0.125 0
-0.375 0.125 0
-0.25 0.125 0
-0.375 0.25 0
-0.25 0.25 0
-0.375 0.25 0
-0.25 0.25 0
-0.375 0.375 0
-0.25 0.375 0
-0.5 0.375 0
-0.375 0.375 0
-0.5 0.5 0
-0.375 0.5 0
-0.75 0.5 0
-0.625 0.5 0
-0.75 0.625 0
-0.625 0.625 0
-0.625 0.5 0
-0.5 0.5 0
-0.625 0.625 0
-0.5 0.625 0
-0.75 0.625 0
-0.625 0.625 0
-0.75 0.75 0
-0.625 0.75 0
-0.625 0.625 0
-0.5 0.625 0
-0.625 0.75 0
-0.5 0.75 0
-0.5 0.5 0
-0.375 0.5 0
-0.5 0.625 0
-0.375 0.625 0
-0.5 0.625 0
-0.375 0.625 0
-0.5 0.75 0
-0.375 0.75 0
-0.375 0.625 0
-0.25 0.625 0
-0.375 0.75 0
-0.25 0.75 0
-0.25 0.75 0
-0.125 0.75 0
-0.25 0.875 0
-0.125 0.875 0
-0.125 0.75 0
0 0.75 0
-0.125 0.875 0
0 0.875 0
-0.25 0.875 0
-0.125 0.875 0
-0.25 1 0
-0.125 1 0
-0.125 0.875 0
0 0.875 0
-0.125 1 0
0 1 0
0.75 0 0
0.875 0 0
0.75 0.125 0
0.875 0.125 0
0.875 0 0
1 0 0
0.875 0.125 0
1 0.125 0
0.75 0.125 0
0.875 0.125 0
0.75 0.25 0
0.875 0.25 0
0.875 0.125 0
1 0.125 0
0.875 0.25 0
1 0.25 0
0 0.75 0
0.125 0.75 0
0 0.875 0
0.125 0.875 0
0.125 0.75 0
0.25 0.75 0
0.125 0.875 0
0.25 0.875 0
0 0.875 0
0.125 0.875 0
0 1 0
0.125 1 0
0.125 0.875 0
0.25 0.875 0
0.125 1 0
0.25 1 0
0.75 -0.75 0
0.875 -0.75 0
0.75 -0.625 0
0.875 -0.625 0
0.875 -0.75 0
1 -0.75 0
0.875 -0.625 0
1 -0.625 0
0.75 -0.625 0
0.875 -0.625 0
0.75 -0.5 0
0.875 -0.5 0
0.875 -0.625 0
1 -0.625 0
0.875 -0.5 0
1 -0.5 0
0.75 -0.5 0
0.875 -0.5 0
0.75 -0.375 0
0.875 -0.375 0
0.875 -0.5 0
1 -0.5 0
0.875 -0.375 0
1 -0.375 0
0.75 -0.375 0
0.875 -0.375 0
0.75 -0.25 0
0.875 -0.25 0
0.875 -0.375 0
1 -0.375 0
0.875 -0.25 0
1 -0.25 0
-0.75 0.75 0
-0.625 0.75 0
-0.75 0.875 0
-0.625 0.875 0
-0.625 0.75 0
-0.5 0.75 0
-0.625 0.875 0
-0.5 0.875 0
-0.75 0.875 0
-0.625 0.875 0
-0.75 1 0
-0.625 1 0
-0.625 0.875 0
-0.5 0.875 0
-0.625 1 0
-0.5 1 0
-0.5 0.75 0
-0.375 0.75 0
-0.5 0.875 0
-0.375 0.875 0
-0.375 0.75 0
-0.25 0.75 0
-0.375 0.875 0
-0.25 0.875 0
-0.5 0.875 0
-0.375 0.875 0
-0.5 1 0
-0.375 1 0
-0.375 0.875 0
-0.25 0.875 0
-0.375 1 0
-0.25 1 0
-0.25 -0.625 0
-0.1875 -0.625 0
-0.25 -0.5625 0
-0.1875 -0.5625 0
-0.1875 -0.625 0
-0.125 -0.625 0
-0.1875 -0.5625 0
-0.125 -0.5625 0
-0.1875 -0.5625 0
-0.125 -0.5625 0
-0.1875 -0.5 0
-0.125 -0.5 0
-0.625 -0.25 0
-0.5625 -0.25 0
-0.625 -0.1875 0
-0.5625 -0.1875 0
-0.625 -0.1875 0
-0.5625 -0.1875 0
-0.625 -0.125 0
-0.5625 -0.125 0
-0.5625 -0.1875 0
-0.5 -0.1875 0
-0.5625 -0.125 0
-0.5 -0.125 0
-0.1875 -0.5 0
-0.125 -0.5 0
-0.1875 -0.4375 0
-0.125 -0.4375 0
-0.25 -0.4375 0
-0.1875 -0.4375 0
-0.25 -0.375 0
-0.1875 -0.375 0
-0.1875 -0.4375 0
-0.125 -0.4375 0
-0.1875 -0.375 0
-0.125 -0.375 0
-0.4375 -0.25 0
-0.375 -0.25 0
-0.4375 -0.1875 0
-0.375 -0.1875 0
-0.5 -0.1875 0
-0.4375 -0.1875 0
-0.5 -0.125 0
-0.4375 -0.125 0
-0.4375 -0.1875 0
-0.375 -0.1875 0
-0.4375 -0.125 0
-0.375 -0.125 0
0.375 -0.25 0
0.4375 -0.25 0
0.375 -0.1875 0
0.4375 -0.1875 0
0.4375 -0.25 0
0.5 -0.25 0
0.4375 -0.1875 0
0.5 -0.1875 0
0.375 -0.1875 0
0.4375 -0.1875 0
0.375 -0.125 0
0.4375 -0.125 0
0.4375 -0.1875 0
0.5 -0.1875 0
0.4375 -0.125 0
0.5 -0.125 0
0.375 -0.125 0
0.4375 -0.125 0
0.375 -0.0625 0
0.4375 -0.0625 0
0.375 -0.0625 0
0.4375 -0.0625 0
0.375 0 0
0.4375 0 0
0.5 -0.25 0
0.5625 -0.25 0
0.5 -0.1875 0
0.5625 -0.1875 0
0.5625 -0.25 0
0.625 -0.25 0
0.5625 -0.1875 0
0.625 -0.1875 0
0.5 -0.1875 0
0.5625 -0.1875 0
0.5 -0.125 0
0.5625 -0.125 0
0.5625 -0.1875 0
0.625 -0.1875 0
0.5625 -0.125 0
0.625 -0.125 0
0.5625 -0.125 0
0.625 -0.125 0
0.5625 -0.0625 0
0.625 -0.0625 0
0.5625 -0.0625 0
0.625 -0.0625 0
0.5625 0 0
0.625 0 0
-0.25 0.375 0
-0.1875 0.375 0
-0.25 0.4375 0
-0.1875 0.4375 0
-0.1875 0.375 0
-0.125 0.375 0
-0.1875 0.4375 0
-0.125 0.4375 0
-0.25 0.4375 0
-0.1875 0.4375 0
-0.25 0.5 0
-0.1875 0.5 0
-0.1875 0.4375 0
-0.125 0.4375 0
-0.1875 0.5 0
-0.125 0.5 0
-0.125 0.375 0
-0.0625 0.375 0
-0.125 0.4375 0
-0.0625 0.4375 0
-0.0625 0.375 0
0 0.375 0
-0.0625 0.4375 0
0 0.4375 0
-0.25 0.5 0
-0.1875 0.5 0
-0.25 0.5625 0
-0.1875 0.5625 0
-0.1875 0.5 0
-0.125 0.5 0
-0.1875 0.5625 0
-0.125 0.5625 0
-0.25 0.5625 0
-0.1875 0.5625 0
-0.25 0.625 0
-0.1875 0.625 0
-0.1875 0.5625 0
-0.125 0.5625 0
-0.1875 0.625 0
-0.125 0.625 0
-0.125 0.5625 0
-0.0625 0.5625 0
-0.125 0.625 0
-0.0625 0.625 0
-0.0625 0.5625 0
0 0.5625 0
-0.0625 0.625 0
0 0.625 0
0.375 0 0
0.4375 0 0
0.375 0.0625 0
0.4375 0.0625 0
0.375 0.0625 0
0.4375 0.0625 0
0.375 0.125 0
0.4375 0.125 0
0.375 0.125 0
0.4375 0.125 0
0.375 0.1875 0
0.4375 0.1875 0
0.375 0.1875 0
0.4375 0.1875 0
0.375 0.25 0
0.4375 0.25 0
0 0.375 0
0.0625 0.375 0
0 0.4375 0
0.0625 0.4375 0
0.0625 0.375 0
0.125 0.375 0
0.0625 0.4375 0
0.125 0.4375 0
0.125 0.375 0
0.1875 0.375 0
0.125 0.4375 0
0.1875 0.4375 0
0.1875 0.375 0
0.25 0.375 0
0.1875 0.4375 0
0.25 0.4375 0
0.25 0.25 0
0.3125 0.25 0
0.25 0.3125 0
0.3125 0.3125 0
0.3125 0.25 0
0.375 0.25 0
0.3125 0.3125 0
0.375 0.3125 0
0.25 0.3125 0
0.3125 0.3125 0
0.25 0.375 0
0.3125 0.375 0
0.4375 0.375 0
0.5 0.375 0
0.4375 0.4375 0
0.5 0.4375 0
0.375 0.4375 0
0.4375 0.4375 0
0.375 0.5 0
0.4375 0.5 0
0.4375 0.4375 0
0.5 0.4375 0
0.4375 0.5 0
0.5 0.5 0
0.5625 0 0
0.625 0 0
0.5625 0.0625 0
0.625 0.0625 0
0.5625 0.0625 0
0.625 0.0625 0
0.5625 0.125 0
0.625 0.125 0
0.5625 0.125 0
0.625 0.125 0
0.5625 0.1875 0
0.625 0.1875 0
0.5625 0.1875 0
0.625 0.1875 0
0.5625 0.25 0
0.625 0.25 0
0.5 0.25 0
0.5625 0.25 0
0.5 0.3125 0
0.5625 0.3125 0
0.5625 0.25 0
0.625 0.25 0
0.5625 0.3125 0
0.625 0.3125 0
0.5 0.3125 0
0.5625 0.3125 0
0.5 0.375 0
0.5625 0.375 0
0.5625 0.3125 0
0.625 0.3125 0
0.5625 0.375 0
0.625 0.375 0
0 0.5625 0
0.0625 0.5625 0
0 0.625 0
0.0625 0.625 0
[...]
POINT_DATA 2092
SCALARS solution double 1
LOOKUP_TABLE default
0.135335 0.173774 0.173774 0.304074 0.173774 0.22313 0.304074 0.445085 0.173774 0.304074 0.22313 0.445085 0.304074 0.445085 0.445085 0.697825 0.22313 0.286505 0.445085 0.581789 0.286505 0.367879 0.581789 0.675623 0.22313 0.445085 0.286505 0.581789 0.286505 0.581789 0.367879 0.675623 1.07037 1.09501 1.09501 1.1253 0.367879 0.472367 0.675623 0.736706 0.472367 0.606531 0.736706 0.829914 0.606531 0.778801 0.829914 1.00944 0.778801 1 1.00944 1.28403 1.09501 1.12185 1.1253 1.15864 0.367879 0.675623 0.472367 0.736706 0.472367 0.736706 0.606531 0.829914 1.09501 1.1253 1.12185 1.15864 0.606531 0.829914 0.778801 1.00944 0.778801 1.00944 1 1.28403 1.1253 1.15864 1.15864 1.20001 0.581789 0.628706 0.756173 0.821387 0.628706 0.675623 0.821387 0.857183 0.581789 0.756173 0.628706 0.821387 0.628706 0.821387 0.675623 0.857183 1.05819 1.06974 1.07037 1.08269 1.06974 1.08119 1.08269 1.09501 1.05819 1.07037 1.06974 1.08269 1.06974 1.08269 1.08119 1.09501 1.12185 1.13643 1.14024 1.15608 1.14024 1.15608 1.15864 1.17695 1.34668 1.5654 1.43608 1.72624 1.43608 1.72624 1.54749 1.91686 1.12185 1.14024 1.13643 1.15608 1.14024 1.15864 1.15608 1.17695 1.34668 1.43608 1.5654 1.72624 1.43608 1.54749 1.72624 1.91686 1.15864 1.17695 1.17932 1.19909 1.17932 1.19909 1.20001 1.22277 1.15864 1.17932 1.17695 1.19909 1.17932 1.20001 1.19909 1.22277 1.54749 1.91686 1.71567 2.15612 1.83645 2.33239 2.27529 2.76091 2.33239 2.83838 2.76091 3.28505 2.45979 2.95851 2.83838 3.37429 2.95851 3.49034 3.37429 3.95508 3.37429 3.95508 3.85499 4.48169 1.54749 1.71567 1.91686 2.15612 1.83645 2.27529 2.33239 2.76091 2.33239 2.76091 2.83838 3.28505 2.45979 2.83838 2.95851 3.37429 2.95851 3.37429 3.49034 3.95508 3.37429 3.85499 3.95508 4.48169 2.27529 2.76091 2.76091 3.25041 2.76091 3.28505 3.25041 3.79789 2.76091 3.25041 3.28505 3.79789 0.445085 0.513437 0.571455 0.666604 0.513437 0.581789 0.666604 0.756173 0.571455 0.666604 0.697825 0.838758 0.445085 0.571455 0.513437 0.666604 0.571455 0.697825 0.666604 0.838758 0.513437 0.666604 0.581789 0.756173 0.675623 0.706164 0.857183 0.876482 0.706164 0.736706 0.876482 0.886161 0.736706 0.78331 0.886161 0.904576 0.78331 0.829914 0.904576 0.952101 0.904576 0.952101 1.02531 1.0594 0.829914 0.919676 0.952101 1.03102 0.919676 1.00944 1.03102 1.14538 0.952101 1.03102 1.0594 1.14655 1.03102 1.14538 1.14655 1.27968 1.08119 1.0927 1.09501 1.10843 1.0927 1.10499 1.10843 1.12185 1.02531 1.0594 1.11755 1.13967 1.10499 1.11755 1.12185 1.13643 1.0594 1.14655 1.13967 1.2524 1.14655 1.27968 1.2524 1.4193 1.2524 1.4193 1.34668 1.5654 1.5654 1.82411 1.72624 2.0463 1.82411 2.117 2.0463 2.39888 1.72624 2.0463 1.91686 2.3026 2.0463 2.39888 2.3026 2.71828 0.675623 0.857183 0.706164 0.876482 0.706164 0.876482 0.736706 0.886161 0.736706 0.886161 0.78331 0.904576 0.78331 0.904576 0.829914 0.952101 0.904576 1.02531 0.952101 1.0594 1.08119 1.09501 1.0927 1.10843 1.0927 1.10843 1.10499 1.12185 1.10499 1.12185 1.11755 1.13643 1.02531 1.11755 1.0594 1.13967 0.829914 0.952101 0.919676 1.03102 0.952101 1.0594 1.03102 1.14655 0.919676 1.03102 1.00944 1.14538 1.03102 1.14655 1.14538 1.27968 1.0594 1.13967 1.14655 1.2524 1.14655 1.2524 1.27968 1.4193 1.2524 1.34668 1.4193 1.5654 1.5654 1.72624 1.82411 2.0463 1.72624 1.91686 2.0463 2.3026 1.82411 2.0463 2.117 2.39888 2.0463 2.3026 2.39888 2.71828 1.91686 2.3026 2.15612 2.6034 2.3026 2.71828 2.6034 3.08022 2.15612 2.6034 2.45979 2.95851 2.6034 3.08022 2.95851 3.49034 1.91686 2.15612 2.3026 2.6034 2.15612 2.45979 2.6034 2.95851 2.3026 2.6034 2.71828 3.08022 2.6034 2.95851 3.08022 3.49034 1.00944 1.14673 1.14538 1.28719 1.14673 1.28403 1.28719 1.45499 1.14538 1.28719 1.27968 1.44923 1.28719 1.45499 1.44923 1.64872 1.27968 1.44923 1.4193 1.62709 1.44923 1.64872 1.62709 1.86825 1.4193 1.62709 1.5654 1.82411 1.62709 1.86825 1.82411 2.117 1.00944 1.14538 1.14673 1.28719 1.14538 1.27968 1.28719 1.44923 1.14673 1.28719 1.28403 1.45499 1.28719 1.44923 1.45499 1.64872 1.27968 1.4193 1.44923 1.62709 1.4193 1.5654 1.62709 1.82411 1.44923 1.62709 1.64872 1.86825 1.62709 1.82411 1.86825 2.117 0.756173 0.78878 0.856049 0.899325 0.78878 0.821387 0.899325 0.930262 0.899325 0.930262 1.03598 1.05806 0.756173 0.856049 0.78878 0.899325 0.78878 0.899325 0.821387 0.930262 0.899325 1.03598 0.930262 1.05806 1.03598 1.05806 1.05809 1.06327 1.05399 1.05809 1.05819 1.06396 1.05809 1.06327 1.06396 1.06974 1.05399 1.05819 1.05809 1.06396 1.03598 1.05809 1.05806 1.06327 1.05809 1.06396 1.06327 1.06974 1.13643 1.14244 1.14626 1.15476 1.14244 1.18339 1.15476 1.1651 1.14626 1.15476 1.15608 1.16439 1.15476 1.1651 1.16439 1.17689 1.15608 1.16439 1.16651 1.17546 1.16651 1.17546 1.17695 1.18622 1.18339 1.25387 1.1651 1.27774 1.25387 1.34668 1.27774 1.39138 1.1651 1.27774 1.17689 1.3027 1.27774 1.39138 1.3027 1.43608 1.3027 1.43608 1.33354 1.49179 1.33354 1.49179 1.37112 1.54749 1.13643 1.14626 1.14244 1.15476 1.14626 1.15608 1.15476 1.16439 1.14244 1.15476 1.18339 1.1651 1.15476 1.16439 1.1651 1.17689 1.15608 1.16651 1.16439 1.17546 1.16651 1.17695 1.17546 1.18622 1.18339 1.1651 1.25387 1.27774 1.1651 1.17689 1.27774 1.3027 1.25387 1.27774 1.34668 1.39138 1.27774 1.3027 1.39138 1.43608 1.3027 1.33354 1.43608 1.49179 1.33354 1.37112 1.49179 1.54749 1.17695 1.18622 1.18802 1.19771 1.18802 1.19771 1.19909 1.20988 1.19909 1.20988 1.21093 1.22247 1.21093 1.22247 1.22277 1.23284 1.17695 1.18802 1.18622 1.19771 1.18802 1.19909 1.19771 1.20988 1.19909 1.21093 1.20988 1.22247 1.21093 1.22277 1.22247 1.23284 1.20001 1.21139 1.21139 1.22279 1.21139 1.22277 1.22279 1.23634 1.21139 1.22279 1.22277 1.23634 1.59209 1.83645 1.81705 2.05587 1.59209 1.81705 1.83645 2.05587 1.81705 2.05587 2.05587 2.27529 1.37112 1.54749 1.41738 1.63158 1.41738 1.63158 1.48531 1.71567 1.48531 1.71567 1.58847 1.83364 1.58847 1.83364 1.72862 1.97721 1.46817 1.72862 1.6407 1.89455 1.72862 1.97721 1.89455 2.14471 1.6407 1.89455 1.83645 2.08442 1.89455 2.14471 2.08442 2.33239 1.37112 1.41738 1.54749 1.63158 1.41738 1.48531 1.63158 1.71567 1.48531 1.58847 1.71567 1.83364 1.58847 1.72862 1.83364 1.97721 1.46817 1.6407 1.72862 1.89455 1.6407 1.83645 1.89455 2.08442 1.72862 1.89455 1.97721 2.14471 1.89455 2.08442 2.14471 2.33239 0.821387 0.839285 0.930262 0.948017 0.839285 0.857183 0.948017 0.958793 0.930262 0.948017 1.05806 1.06305 0.948017 0.958793 1.06305 1.06867 0.821387 0.930262 0.839285 0.948017 0.930262 1.05806 0.948017 1.06305 0.839285 0.948017 0.857183 0.958793 0.948017 1.06305 0.958793 1.06867 0.697825 0.768292 0.768292 0.84895 0.768292 0.838758 0.84895 0.925361 0.768292 0.84895 0.838758 0.925361 0.84895 0.925361 0.925361 1.03873 0.838758 0.902943 0.925361 1.03493 0.902943 0.966958 1.03493 1.05399 0.925361 1.03493 1.03873 1.05533 1.03493 1.05399 1.05533 1.05819 0.838758 0.925361 0.902943 1.03493 0.925361 1.03873 1.03493 1.05533 0.902943 1.03493 0.966958 1.05399 1.03493 1.05533 1.05399 1.05819 1.03873 1.05533 1.05533 1.05853 1.05533 1.05819 1.05853 1.06428 1.05533 1.05853 1.05819 1.06428 1.05853 1.06428 1.06428 1.07037 1.05806 1.06305 1.06327 1.06917 1.06305 1.06867 1.06917 1.07466 1.06327 1.06917 1.06974 1.07546 1.06917 1.07466 1.07546 1.08119 1.05806 1.06327 1.06305 1.06917 1.06327 1.06974 1.06917 1.07546 1.06305 1.06917 1.06867 1.07466 1.06917 1.07546 1.07466 1.08119 1.71567 1.9359 1.83364 2.06898 1.9359 2.15612 2.06898 2.30795 1.83364 2.06898 1.97721 2.22183 2.06898 2.30795 2.22183 2.45979 1.97721 2.22183 2.14471 2.39313 2.22183 2.45979 2.39313 2.64909 2.14471 2.39313 2.33239 2.58539 2.39313 2.64909 2.58539 2.83838 2.83838 3.10634 3.06172 3.3277 3.10634 3.37429 3.3277 3.61464 3.06172 3.3277 3.28505 3.56808 3.3277 3.61464 3.56808 3.85499 1.71567 1.83364 1.9359 2.06898 1.83364 1.97721 2.06898 2.22183 1.9359 2.06898 2.15612 2.30795 2.06898 2.22183 2.30795 2.45979 1.97721 2.14471 2.22183 2.39313 2.14471 2.33239 2.39313 2.58539 2.22183 2.39313 2.45979 2.64909 2.39313 2.58539 2.64909 2.83838 2.83838 3.06172 3.10634 3.3277 3.06172 3.28505 3.3277 3.56808 3.10634 3.3277 3.37429 3.61464 3.3277 3.56808 3.61464 3.85499 3.25041 3.52415 3.52415 3.7929 3.52415 3.79789 3.7929 4.08139 3.52415 3.7929 3.79789 4.08139 3.7929 4.08139 4.08139 4.37867 3.28505 3.56808 3.54147 3.82253 3.56808 3.85499 3.82253 4.12366 3.54147 3.82253 3.79789 4.09583 3.82253 4.12366 4.09583 4.40604 3.85499 4.16834 4.12366 4.439 4.16834 4.48169 4.439 4.77073 4.12366 4.439 4.40604 4.73322 4.439 4.77073 4.73322 5.07842 3.79789 4.09583 4.08139 4.38534 4.09583 4.40604 4.38534 4.70708 4.08139 4.38534 4.37867 4.69372 4.38534 4.70708 4.69372 5.02723 4.40604 4.73322 4.70708 5.04673 4.73322 5.07842 5.04673 5.40595 4.70708 5.04673 5.02723 5.38044 5.04673 5.40595 5.38044 5.7546 3.28505 3.54147 3.56808 3.82253 3.54147 3.79789 3.82253 4.09583 3.56808 3.82253 3.85499 4.12366 3.82253 4.09583 4.12366 4.40604 3.79789 4.08139 4.09583 4.38534 4.08139 4.37867 4.38534 4.69372 4.09583 4.38534 4.40604 4.70708 4.38534 4.69372 4.70708 5.02723 3.85499 4.12366 4.16834 4.439 4.12366 4.40604 4.439 4.73322 4.16834 4.439 4.48169 4.77073 4.439 4.73322 4.77073 5.07842 4.40604 4.70708 4.73322 5.04673 4.70708 5.02723 5.04673 5.38044 4.73322 5.04673 5.07842 5.40595 5.04673 5.38044 5.40595 5.7546 4.37867 4.69372 4.69372 5.02069 4.69372 5.02723 5.02069 5.36752 4.69372 5.02069 5.02723 5.36752 5.02069 5.36752 5.36752 5.72899 5.02723 5.38044 5.36752 5.73542 5.38044 5.7546 5.73542 6.12574 5.36752 5.73542 5.72899 6.11295 5.73542 6.12574 6.11295 6.52082 5.02723 5.36752 5.38044 5.73542 5.36752 5.72899 5.73542 6.11295 5.38044 5.73542 5.7546 6.12574 5.73542 6.11295 6.12574 6.52082 5.72899 6.11295 6.11295 6.51442 6.11295 6.52082 6.51442 6.94138 6.11295 6.51442 6.52082 6.94138 6.51442 6.94138 6.94138 7.38906 0.666604 0.711388 0.752681 0.805222 0.711388 0.756173 0.805222 0.856049 0.752681 0.805222 0.838758 0.902943 0.805222 0.856049 0.902943 0.966958 0.666604 0.752681 0.711388 0.805222 0.752681 0.838758 0.805222 0.902943 0.711388 0.805222 0.756173 0.856049 0.805222 0.902943 0.856049 0.966958 0.857183 0.866832 0.958793 0.96692 0.866832 0.876482 0.96692 0.971926 0.958793 0.96692 1.06867 1.07375 0.96692 0.971926 1.07375 1.07595 0.876482 0.881321 0.971926 0.970229 0.881321 0.886161 0.970229 0.965447 0.971926 0.970229 1.07595 1.07907 0.970229 0.965447 1.07907 1.0416 0.886161 0.895368 0.965447 0.961347 0.895368 0.904576 0.961347 0.964942 0.965447 0.961347 1.0416 1.02564 0.961347 0.964942 1.02564 1.02531 1.06867 1.07375 1.07466 1.07979 1.07375 1.07595 1.07979 1.08526 1.07466 1.07979 1.08119 1.08694 1.07979 1.08526 1.08694 1.0927 1.07595 1.07907 1.08526 1.08993 1.07907 1.0416 1.08993 1.09878 1.08526 1.08993 1.0927 1.09885 1.08993 1.09878 1.09885 1.10499 1.0416 1.02564 1.09878 1.09566 1.02564 1.02531 1.09566 1.07143 1.09878 1.09566 1.10499 1.11127 1.09566 1.07143 1.11127 1.11755 1.11755 1.12861 1.12699 1.13711 1.12861 1.13967 1.13711 1.17245 1.12699 1.13711 1.13643 1.14244 1.13711 1.17245 1.14244 1.18339 1.13967 1.19603 1.17245 1.22674 1.19603 1.2524 1.22674 1.29954 1.17245 1.22674 1.18339 1.25387 1.22674 1.29954 1.25387 1.34668 0.857183 0.958793 0.866832 0.96692 0.958793 1.06867 0.96692 1.07375 0.866832 0.96692 0.876482 0.971926 0.96692 1.07375 0.971926 1.07595 0.876482 0.971926 0.881321 0.970229 0.971926 1.07595 0.970229 1.07907 0.881321 0.970229 0.886161 0.965447 0.970229 1.07907 0.965447 1.0416 0.886161 0.965447 0.895368 0.961347 0.965447 1.0416 0.961347 1.02564 0.895368 0.961347 0.904576 0.964942 0.961347 1.02564 0.964942 1.02531 1.06867 1.07466 1.07375 1.07979 1.07466 1.08119 1.07979 1.08694 1.07375 1.07979 1.07595 1.08526 1.07979 1.08694 1.08526 1.0927 1.07595 1.08526 1.07907 1.08993 1.08526 1.0927 1.08993 1.09885 1.07907 1.08993 1.0416 1.09878 1.08993 1.09885 1.09878 1.10499 1.0416 1.09878 1.02564 1.09566 1.09878 1.10499 1.09566 1.11127 1.02564 1.09566 1.02531 1.07143 1.09566 1.11127 1.07143 1.11755 1.11755 1.12699 1.12861 1.13711 1.12699 1.13643 1.13711 1.14244 1.12861 1.13711 1.13967 1.17245 1.13711 1.14244 1.17245 1.18339 1.13967 1.17245 1.19603 1.22674 1.17245 1.18339 1.22674 1.25387 1.19603 1.22674 1.2524 1.29954 1.22674 1.25387 1.29954 1.34668 0.856049 0.877687 0.911504 0.937904 0.877687 0.899325 0.937904 0.967654 0.911504 0.937904 0.966958 0.990843 0.937904 0.967654 0.990843 1.03598 0.856049 0.911504 0.877687 0.937904 0.911504 0.966958 0.937904 0.990843 0.877687 0.937904 0.899325 0.967654 0.937904 0.990843 0.967654 1.03598 0.966958 0.990843 1.01047 1.05209 0.990843 1.03598 1.05209 1.04703 1.01047 1.05209 1.05399 1.05604 1.05209 1.04703 1.05604 1.05809 0.966958 1.01047 0.990843 1.05209 1.01047 1.05399 1.05209 1.05604 0.990843 1.05209 1.03598 1.04703 1.05209 1.05604 1.04703 1.05809 1.16439 1.17064 1.16993 1.1745 1.17064 1.17689 1.1745 1.1821 1.16993 1.1745 1.17546 1.18019 1.1745 1.1821 1.18019 1.18487 1.17546 1.18019 1.18084 1.18533 1.18019 1.18487 1.18533 1.18951 1.18084 1.18533 1.18622 1.1908 1.18533 1.18951 1.1908 1.19519 1.17689 1.23979 1.1821 1.24845 1.23979 1.3027 1.24845 1.31812 1.1821 1.24845 1.18487 1.25866 1.24845 1.31812 1.25866 1.33354 1.18487 1.25866 1.18951 1.26976 1.25866 1.33354 1.26976 1.35233 1.18951 1.26976 1.19519 1.2825 1.26976 1.35233 1.2825 1.37112 1.16439 1.16993 1.17064 1.1745 1.16993 1.17546 1.1745 1.18019 1.17064 1.1745 1.17689 1.1821 1.1745 1.18019 1.1821 1.18487 1.17546 1.18084 1.18019 1.18533 1.18084 1.18622 1.18533 1.1908 1.18019 1.18533 1.18487 1.18951 1.18533 1.1908 1.18951 1.19519 1.17689 1.1821 1.23979 1.24845 1.1821 1.18487 1.24845 1.25866 1.23979 1.24845 1.3027 1.31812 1.24845 1.25866 1.31812 1.33354 1.18487 1.18951 1.25866 1.26976 1.18951 1.19519 1.26976 1.2825 1.25866 1.26976 1.33354 1.35233 1.26976 1.2825 1.35233 1.37112 1.18622 1.1908 1.19197 1.19656 1.1908 1.19519 1.19656 1.20127 1.19197 1.19656 1.19771 1.20261 1.19656 1.20127 1.20261 1.20716 1.19771 1.20261 1.2038 1.20865 1.20261 1.20716 1.20865 1.21669 1.2038 1.20865 1.20988 1.21674 1.20865 1.21669 1.21674 1.22725 1.20988 1.21674 1.21618 1.22122 1.21674 1.22725 1.22122 1.25413 1.21618 1.22122 1.22247 1.22565 1.22122 1.25413 1.22565 1.34087 1.22247 1.22565 1.22766 1.24242 1.22565 1.34087 1.24242 1.39808 1.22766 1.24242 1.23284 1.3298 1.24242 1.39808 1.3298 1.46817 1.18622 1.19197 1.1908 1.19656 1.19197 1.19771 1.19656 1.20261 1.1908 1.19656 1.19519 1.20127 1.19656 1.20261 1.20127 1.20716 1.19771 1.2038 1.20261 1.20865 1.2038 1.20988 1.20865 1.21674 1.20261 1.20865 1.20716 1.21669 1.20865 1.21674 1.21669 1.22725 1.20988 1.21618 1.21674 1.22122 1.21618 1.22247 1.22122 1.22565 1.21674 1.22122 1.22725 1.25413 1.22122 1.22565 1.25413 1.34087 1.22247 1.22766 1.22565 1.24242 1.22766 1.23284 1.24242 1.3298 1.22565 1.24242 1.34087 1.39808 1.24242 1.3298 1.39808 1.46817 1.22279 1.22957 1.22957 1.23684 1.22957 1.23634 1.23684 1.23563 1.22957 1.23684 1.23634 1.23563 1.23684 1.23563 1.23563 1.34885 1.22277 1.22781 1.22955 1.23333 1.22781 1.23284 1.23333 1.26855 1.22955 1.23333 1.23634 1.24203 1.23333 1.26855 1.24203 1.38954 1.23284 1.3298 1.26855 1.42298 1.3298 1.46817 1.42298 1.55444 1.26855 1.42298 1.38954 1.51224 1.42298 1.55444 1.51224 1.6407 1.23634 1.24203 1.23563 1.35358 1.24203 1.38954 1.35358 1.48413 1.23563 1.35358 1.34885 1.47027 1.35358 1.48413 1.47027 1.59209 1.38954 1.51224 1.48413 1.61185 1.51224 1.6407 1.61185 1.73858 1.48413 1.61185 1.59209 1.71427 1.61185 1.73858 1.71427 1.83645 1.22277 1.22955 1.22781 1.23333 1.22955 1.23634 1.23333 1.24203 1.22781 1.23333 1.23284 1.26855 1.23333 1.24203 1.26855 1.38954 1.23634 1.23563 1.24203 1.35358 1.23563 1.34885 1.35358 1.47027 1.24203 1.35358 1.38954 1.48413 1.35358 1.47027 1.48413 1.59209 1.23284 1.26855 1.3298 1.42298 1.26855 1.38954 1.42298 1.51224 1.3298 1.42298 1.46817 1.55444 1.42298 1.51224 1.55444 1.6407 1.38954 1.48413 1.51224 1.61185 1.48413 1.59209 1.61185 1.71427 1.51224 1.61185 1.6407 1.73858 1.61185 1.71427 1.73858 1.83645 1.34885 1.47027 1.47027 1.58582 1.47027 1.59209 1.58582 1.70457 1.47027 1.58582 1.59209 1.70457 1.58582 1.70457 1.70457 1.81705 1.19519 1.2825 1.20127 1.29651 1.2825 1.37112 1.29651 1.39425 1.20127 1.29651 1.20716 1.31347 1.29651 1.39425 1.31347 1.41738 1.20716 1.31347 1.21669 1.33377 1.31347 1.41738 1.33377 1.45134 1.21669 1.33377 1.22725 1.36248 1.33377 1.45134 1.36248 1.48531 1.22725 1.36248 1.25413 1.40578 1.36248 1.48531 1.40578 1.53689 1.25413 1.40578 1.34087 1.46246 1.40578 1.53689 1.46246 1.58847 1.34087 1.46246 1.39808 1.5289 1.46246 1.58847 1.5289 1.65855 1.39808 1.5289 1.46817 1.5984 1.5289 1.65855 1.5984 1.72862 1.19519 1.20127 1.2825 1.29651 1.20127 1.20716 1.29651 1.31347 1.2825 1.29651 1.37112 1.39425 1.29651 1.31347 1.39425 1.41738 1.20716 1.21669 1.31347 1.33377 1.21669 1.22725 1.33377 1.36248 1.31347 1.33377 1.41738 1.45134 1.33377 1.36248 1.45134 1.48531 1.22725 1.25413 1.36248 1.40578 1.25413 1.34087 1.40578 1.46246 1.36248 1.40578 1.48531 1.53689 1.40578 1.46246 1.53689 1.58847 1.34087 1.39808 1.46246 1.5289 1.39808 1.46817 1.5289 1.5984 1.46246 1.5289 1.58847 1.65855 1.5289 1.5984 1.65855 1.72862 
SCALARS L2_error double 1
LOOKUP_TABLE default