# vtk DataFile Version 3.0
#This file was generated by the deal.II library on 2020/3/18 at 14:59:17
ASCII
DATASET UNSTRUCTURED_GRID

POINTS 532 double
-1 -1 0
-0.75 -1 0
-1 -0.75 0
-0.75 -0.75 0
-0.75 -1 0
-0.5 -1 0
-0.75 -0.75 0
-0.5 -0.75 0
-1 -0.75 0
-0.75 -0.75 0
-1 -0.5 0
-0.75 -0.5 0
-0.75 -0.75 0
-0.5 -0.75 0
-0.75 -0.5 0
-0.5 -0.5 0
-0.5 -1 0
-0.25 -1 0
-0.5 -0.75 0
-0.25 -0.75 0
-0.25 -1 0
0 -1 0
-0.25 -0.75 0
0 -0.75 0
-0.5 -0.75 0
-0.25 -0.75 0
-0.5 -0.5 0
-0.25 -0.5 0
-0.25 -0.75 0
0 -0.75 0
-0.25 -0.5 0
0 -0.5 0
-1 -0.5 0
-0.75 -0.5 0
-1 -0.25 0
-0.75 -0.25 0
-0.75 -0.5 0
-0.5 -0.5 0
-0.75 -0.25 0
-0.5 -0.25 0
-1 -0.25 0
-0.75 -0.25 0
-1 0 0
-0.75 0 0
-0.75 -0.25 0
-0.5 -0.25 0
-0.75 0 0
-0.5 0 0
-0.5 -0.5 0
-0.25 -0.5 0
-0.5 -0.25 0
-0.25 -0.25 0
-0.25 -0.5 0
0 -0.5 0
-0.25 -0.25 0
0 -0.25 0
-0.5 -0.25 0
-0.25 -0.25 0
-0.5 0 0
-0.25 0 0
-0.25 -0.25 0
0 -0.25 0
-0.25 0 0
0 0 0
0 -1 0
0.25 -1 0
0 -0.75 0
0.25 -0.75 0
0.25 -1 0
0.5 -1 0
0.25 -0.75 0
0.5 -0.75 0
0 -0.75 0
0.25 -0.75 0
0 -0.5 0
0.25 -0.5 0
0.25 -0.75 0
0.5 -0.75 0
0.25 -0.5 0
0.5 -0.5 0
0.5 -1 0
0.75 -1 0
0.5 -0.75 0
0.75 -0.75 0
0.75 -1 0
1 -1 0
0.75 -0.75 0
1 -0.75 0
0.5 -0.75 0
0.75 -0.75 0
0.5 -0.5 0
0.75 -0.5 0
0.75 -0.75 0
1 -0.75 0
0.75 -0.5 0
1 -0.5 0
0 -0.5 0
0.25 -0.5 0
0 -0.25 0
0.25 -0.25 0
0.25 -0.5 0
0.5 -0.5 0
0.25 -0.25 0
0.5 -0.25 0
0 -0.25 0
0.25 -0.25 0
0 0 0
0.25 0 0
0.25 -0.25 0
0.5 -0.25 0
0.25 0 0
0.5 0 0
-1 0 0
-0.75 0 0
-1 0.25 0
-0.75 0.25 0
-0.75 0 0
-0.5 0 0
-0.75 0.25 0
-0.5 0.25 0
-1 0.25 0
-0.75 0.25 0
-1 0.5 0
-0.75 0.5 0
-0.75 0.25 0
-0.5 0.25 0
-0.75 0.5 0
-0.5 0.5 0
-0.5 0 0
-0.25 0 0
-0.5 0.25 0
-0.25 0.25 0
-0.25 0 0
0 0 0
-0.25 0.25 0
0 0.25 0
-0.5 0.25 0
-0.25 0.25 0
-0.5 0.5 0
-0.25 0.5 0
-0.25 0.25 0
0 0.25 0
-0.25 0.5 0
0 0.5 0
-1 0.5 0
-0.75 0.5 0
-1 0.75 0
-0.75 0.75 0
-0.75 0.5 0
-0.5 0.5 0
-0.75 0.75 0
-0.5 0.75 0
-1 0.75 0
-0.75 0.75 0
-1 1 0
-0.75 1 0
-0.75 0.75 0
-0.5 0.75 0
-0.75 1 0
-0.5 1 0
0 0 0
0.25 0 0
0 0.25 0
0.25 0.25 0
0.5 -0.5 0
0.625 -0.5 0
0.5 -0.375 0
0.625 -0.375 0
0.625 -0.5 0
0.75 -0.5 0
0.625 -0.375 0
0.75 -0.375 0
0.5 -0.375 0
0.625 -0.375 0
0.5 -0.25 0
0.625 -0.25 0
0.625 -0.375 0
0.75 -0.375 0
0.625 -0.25 0
0.75 -0.25 0
0.75 -0.5 0
0.875 -0.5 0
0.75 -0.375 0
0.875 -0.375 0
0.875 -0.5 0
1 -0.5 0
0.875 -0.375 0
1 -0.375 0
0.75 -0.375 0
0.875 -0.375 0
0.75 -0.25 0
0.875 -0.25 0
0.875 -0.375 0
1 -0.375 0
0.875 -0.25 0
1 -0.25 0
0.5 -0.25 0
0.625 -0.25 0
0.5 -0.125 0
0.625 -0.125 0
0.625 -0.25 0
0.75 -0.25 0
0.625 -0.125 0
0.75 -0.125 0
0.5 -0.125 0
0.625 -0.125 0
0.5 0 0
0.625 0 0
0.625 -0.125 0
0.75 -0.125 0
0.625 0 0
0.75 0 0
0.75 -0.25 0
0.875 -0.25 0
0.75 -0.125 0
0.875 -0.125 0
0.875 -0.25 0
1 -0.25 0
0.875 -0.125 0
1 -0.125 0
0.75 -0.125 0
0.875 -0.125 0
0.75 0 0
0.875 0 0
0.875 -0.125 0
1 -0.125 0
0.875 0 0
1 0 0
-0.5 0.5 0
-0.375 0.5 0
-0.5 0.625 0
-0.375 0.625 0
-0.375 0.5 0
-0.25 0.5 0
-0.375 0.625 0
-0.25 0.625 0
-0.5 0.625 0
-0.375 0.625 0
-0.5 0.75 0
-0.375 0.75 0
-0.375 0.625 0
-0.25 0.625 0
-0.375 0.75 0
-0.25 0.75 0
-0.25 0.5 0
-0.125 0.5 0
-0.25 0.625 0
-0.125 0.625 0
-0.125 0.5 0
0 0.5 0
-0.125 0.625 0
0 0.625 0
-0.25 0.625 0
-0.125 0.625 0
-0.25 0.75 0
-0.125 0.75 0
-0.125 0.625 0
0 0.625 0
-0.125 0.75 0
0 0.75 0
-0.5 0.75 0
-0.375 0.75 0
-0.5 0.875 0
-0.375 0.875 0
-0.375 0.75 0
-0.25 0.75 0
-0.375 0.875 0
-0.25 0.875 0
-0.5 0.875 0
-0.375 0.875 0
-0.5 1 0
-0.375 1 0
-0.375 0.875 0
-0.25 0.875 0
-0.375 1 0
-0.25 1 0
-0.25 0.75 0
-0.125 0.75 0
-0.25 0.875 0
-0.125 0.875 0
-0.125 0.75 0
0 0.75 0
-0.125 0.875 0
0 0.875 0
-0.25 0.875 0
-0.125 0.875 0
-0.25 1 0
-0.125 1 0
-0.125 0.875 0
0 0.875 0
-0.125 1 0
0 1 0
0.25 0 0
0.375 0 0
0.25 0.125 0
0.375 0.125 0
0.375 0 0
0.5 0 0
0.375 0.125 0
0.5 0.125 0
0.25 0.125 0
0.375 0.125 0
0.25 0.25 0
0.375 0.25 0
0.375 0.125 0
0.5 0.125 0
0.375 0.25 0
0.5 0.25 0
0 0.25 0
0.125 0.25 0
0 0.375 0
0.125 0.375 0
0.125 0.25 0
0.25 0.25 0
0.125 0.375 0
0.25 0.375 0
0 0.375 0
0.125 0.375 0
0 0.5 0
0.125 0.5 0
0.125 0.375 0
0.25 0.375 0
0.125 0.5 0
0.25 0.5 0
0.25 0.25 0
0.375 0.25 0
0.25 0.375 0
0.375 0.375 0
0.375 0.25 0
0.5 0.25 0
0.375 0.375 0
0.5 0.375 0
0.25 0.375 0
0.375 0.375 0
0.25 0.5 0
0.375 0.5 0
0.375 0.375 0
0.5 0.375 0
0.375 0.5 0
0.5 0.5 0
0.5 0 0
0.625 0 0
0.5 0.125 0
0.625 0.125 0
0.625 0 0
0.75 0 0
0.625 0.125 0
0.75 0.125 0
0.5 0.125 0
0.625 0.125 0
0.5 0.25 0
0.625 0.25 0
0.625 0.125 0
0.75 0.125 0
0.625 0.25 0
0.75 0.25 0
0.75 0 0
0.875 0 0
0.75 0.125 0
0.875 0.125 0
0.875 0 0
1 0 0
0.875 0.125 0
1 0.125 0
0.75 0.125 0
0.875 0.125 0
0.75 0.25 0
0.875 0.25 0
0.875 0.125 0
1 0.125 0
0.875 0.25 0
1 0.25 0
0.5 0.25 0
0.625 0.25 0
0.5 0.375 0
0.625 0.375 0
0.625 0.25 0
0.75 0.25 0
0.625 0.375 0
0.75 0.375 0
0.5 0.375 0
0.625 0.375 0
0.5 0.5 0
0.625 0.5 0
0.625 0.375 0
0.75 0.375 0
0.625 0.5 0
0.75 0.5 0
0.75 0.25 0
0.875 0.25 0
0.75 0.375 0
0.875 0.375 0
0.875 0.25 0
1 0.25 0
0.875 0.375 0
1 0.375 0
0.75 0.375 0
0.875 0.375 0
0.75 0.5 0
0.875 0.5 0
0.875 0.375 0
1 0.375 0
0.875 0.5 0
1 0.5 0
0 0.5 0
0.125 0.5 0
0 0.625 0
0.125 0.625 0
0.125 0.5 0
0.25 0.5 0
0.125 0.625 0
0.25 0.625 0
0 0.625 0
0.125 0.625 0
0 0.75 0
0.125 0.75 0
0.125 0.625 0
0.25 0.625 0
0.125 0.75 0
0.25 0.75 0
0.25 0.5 0
0.375 0.5 0
0.25 0.625 0
0.375 0.625 0
0.375 0.5 0
0.5 0.5 0
0.375 0.625 0
0.5 0.625 0
0.25 0.625 0
0.375 0.625 0
0.25 0.75 0
0.375 0.75 0
0.375 0.625 0
0.5 0.625 0
0.375 0.75 0
0.5 0.75 0
0 0.75 0
0.125 0.75 0
0 0.875 0
0.125 0.875 0
0.125 0.75 0
0.25 0.75 0
0.125 0.875 0
0.25 0.875 0
0 0.875 0
0.125 0.875 0
0 1 0
0.125 1 0
0.125 0.875 0
0.25 0.875 0
0.125 1 0
0.25 1 0
0.25 0.75 0
0.375 0.75 0
0.25 0.875 0
0.375 0.875 0
0.375 0.75 0
0.5 0.75 0
0.375 0.875 0
0.5 0.875 0
0.25 0.875 0
0.375 0.875 0
0.25 1 0
0.375 1 0
0.375 0.875 0
0.5 0.875 0
0.375 1 0
0.5 1 0
0.5 0.5 0
0.625 0.5 0
0.5 0.625 0
0.625 0.625 0
0.625 0.5 0
0.75 0.5 0
0.625 0.625 0
0.75 0.625 0
0.5 0.625 0
0.625 0.625 0
0.5 0.75 0
0.625 0.75 0
0.625 0.625 0
0.75 0.625 0
0.625 0.75 0
0.75 0.75 0
0.75 0.5 0
0.875 0.5 0
0.75 0.625 0
0.875 0.625 0
0.875 0.5 0
1 0.5 0
0.875 0.625 0
1 0.625 0
0.75 0.625 0
0.875 0.625 0
0.75 0.75 0
0.875 0.75 0
0.875 0.625 0
1 0.625 0
0.875 0.75 0
1 0.75 0
0.5 0.75 0
0.625 0.75 0
0.5 0.875 0
0.625 0.875 0
0.625 0.75 0
0.75 0.75 0
0.625 0.875 0
0.75 0.875 0
0.5 0.875 0
0.625 0.875 0
0.5 1 0
0.625 1 0
0.625 0.875 0
0.75 0.875 0
0.625 1 0
0.75 1 0
0.75 0.75 0
0.875 0.75 0
0.75 0.875 0
0.875 0.875 0
0.875 0.75 0
1 0.75 0
0.875 0.875 0
1 0.875 0
0.75 0.875 0
0.875 0.875 0
0.75 1 0
0.875 1 0
0.875 0.875 0
1 0.875 0
0.875 1 0
1 1 0

CELLS 133 665
4	0	1	3	2
4	4	5	7	6
4	8	9	11	10
4	12	13	15	14
4	16	17	19	18
4	20	21	23	22
4	24	25	27	26
4	28	29	31	30
4	32	33	35	34
4	36	37	39	38
4	40	41	43	42
4	44	45	47	46
4	48	49	51	50
4	52	53	55	54
4	56	57	59	58
4	60	61	63	62
4	64	65	67	66
4	68	69	71	70
4	72	73	75	74
4	76	77	79	78
4	80	81	83	82
4	84	85	87	86
4	88	89	91	90
4	92	93	95	94
4	96	97	99	98
4	100	101	103	102
4	104	105	107	106
4	108	109	111	110
4	112	113	115	114
4	116	117	119	118
4	120	121	123	122
4	124	125	127	126
4	128	129	131	130
4	132	133	135	134
4	136	137	139	138
4	140	141	143	142
4	144	145	147	146
4	148	149	151	150
4	152	153	155	154
4	156	157	159	158
4	160	161	163	162
4	164	165	167	166
4	168	169	171	170
4	172	173	175	174
4	176	177	179	178
4	180	181	183	182
4	184	185	187	186
4	188	189	191	190
4	192	193	195	194
4	196	197	199	198
4	200	201	203	202
4	204	205	207	206
4	208	209	211	210
4	212	213	215	214
4	216	217	219	218
4	220	221	223	222
4	224	225	227	226
4	228	229	231	230
4	232	233	235	234
4	236	237	239	238
4	240	241	243	242
4	244	245	247	246
4	248	249	251	250
4	252	253	255	254
4	256	257	259	258
4	260	261	263	262
4	264	265	267	266
4	268	269	271	270
4	272	273	275	274
4	276	277	279	278
4	280	281	283	282
4	284	285	287	286
4	288	289	291	290
4	292	293	295	294
4	296	297	299	298
4	300	301	303	302
4	304	305	307	306
4	308	309	311	310
4	312	313	315	314
4	316	317	319	318
4	320	321	323	322
4	324	325	327	326
4	328	329	331	330
4	332	333	335	334
4	336	337	339	338
4	340	341	343	342
4	344	345	347	346
4	348	349	351	350
4	352	353	355	354
4	356	357	359	358
4	360	361	363	362
4	364	365	367	366
4	368	369	371	370
4	372	373	375	374
4	376	377	379	378
4	380	381	383	382
4	384	385	387	386
4	388	389	391	390
4	392	393	395	394
4	396	397	399	398
4	400	401	403	402
4	404	405	407	406
4	408	409	411	410
4	412	413	415	414
4	416	417	419	418
4	420	421	423	422
4	424	425	427	426
4	428	429	431	430
4	432	433	435	434
4	436	437	439	438
4	440	441	443	442
4	444	445	447	446
4	448	449	451	450
4	452	453	455	454
4	456	457	459	458
4	460	461	463	462
4	464	465	467	466
4	468	469	471	470
4	472	473	475	474
4	476	477	479	478
4	480	481	483	482
4	484	485	487	486
4	488	489	491	490
4	492	493	495	494
4	496	497	499	498
4	500	501	503	502
4	504	505	507	506
4	508	509	511	510
4	512	513	515	514
4	516	517	519	518
4	520	521	523	522
4	524	525	527	526
4	528	529	531	530

CELL_TYPES 133
 9 9 9 9 9 9 9 9 9 9 9 9 9 9 9 9 9 9 9 9 9 9 9 9 9 9 9 9 9 9 9 9 9 9 9 9 9 9 9 9 9 9 9 9 9 9 9 9 9 9 9 9 9 9 9 9 9 9 9 9 9 9 9 9 9 9 9 9 9 9 9 9 9 9 9 9 9 9 9 9 9 9 9 9 9 9 9 9 9 9 9 9 9 9 9 9 9 9 9 9 9 9 9 9 9 9 9 9 9 9 9 9 9 9 9 9 9 9 9 9 9 9 9 9 9 9 9 9 9 9 9 9 9
POINT_DATA 532
SCALARS solution double 1
LOOKUP_TABLE default
0.135335 0.173774 0.173774 0.223212 0.173774 0.22313 0.223212 0.28659 0.173774 0.223212 0.22313 0.28659 0.223212 0.28659 0.28659 0.367924 0.22313 0.286505 0.28659 0.367907 0.286505 0.367879 0.367907 0.472264 0.28659 0.367907 0.367924 0.472242 0.367907 0.472264 0.472242 0.606121 0.22313 0.28659 0.286505 0.367907 0.28659 0.367924 0.367907 0.472242 0.286505 0.367907 0.367879 0.472264 0.367907 0.472242 0.472264 0.606121 0.367924 0.472242 0.472242 0.606099 0.472242 0.606121 0.606099 0.777784 0.472242 0.606099 0.606121 0.777784 0.606099 0.777784 0.777784 0.9984 0.367879 0.472367 0.472264 0.606176 0.472367 0.606531 0.606176 0.778271 0.472264 0.606176 0.606121 0.777905 0.606176 0.778271 0.777905 0.997904 0.606531 0.778801 0.778271 0.999658 0.778801 1 0.999658 1.28403 0.778271 0.999658 0.997904 1.28194 0.999658 1.28403 1.28194 1.64872 0.606121 0.777905 0.777784 0.998423 0.777905 0.997904 0.998423 1.28141 0.777784 0.998423 0.9984 1.28041 0.998423 1.28141 1.28041 1.64638 0.367879 0.472264 0.472367 0.606176 0.472264 0.606121 0.606176 0.777905 0.472367 0.606176 0.606531 0.778271 0.606176 0.777905 0.778271 0.997904 0.606121 0.777784 0.777905 0.998423 0.777784 0.9984 0.998423 1.28041 0.777905 0.998423 0.997904 1.28141 0.998423 1.28041 1.28141 1.64638 0.606531 0.778271 0.778801 0.999658 0.778271 0.997904 0.999658 1.28194 0.778801 0.999658 1 1.28403 0.999658 1.28194 1.28403 1.64872 0.9984 1.28041 1.28041 1.6468 0.997904 1.13992 1.13966 1.28584 1.13992 1.28194 1.28584 1.45809 1.13966 1.28584 1.28141 1.45787 1.28584 1.45809 1.45787 1.65061 1.28194 1.46533 1.45809 1.65055 1.46533 1.64872 1.65055 1.86825 1.45809 1.65055 1.65061 1.86943 1.65055 1.86825 1.86943 2.117 1.28141 1.45787 1.4639 1.65042 1.45787 1.65061 1.65042 1.86982 1.4639 1.65042 1.64638 1.87017 1.65042 1.86982 1.87017 2.11821 1.65061 1.86943 1.86982 2.11785 1.86943 2.117 2.11785 2.39888 1.86982 2.11785 2.11821 2.39957 2.11785 2.39888 2.39957 2.71828 0.997904 1.13966 1.13992 1.28584 1.13966 1.28141 1.28584 1.45787 1.13992 1.28584 1.28194 1.45809 1.28584 1.45787 1.45809 1.65061 1.28141 1.4639 1.45787 1.65042 1.4639 1.64638 1.65042 1.87017 1.45787 1.65042 1.65061 1.86982 1.65042 1.87017 1.86982 2.11821 1.28194 1.45809 1.46533 1.65055 1.45809 1.65061 1.65055 1.86943 1.46533 1.65055 1.64872 1.86825 1.65055 1.86943 1.86825 2.117 1.65061 1.86982 1.86943 2.11785 1.86982 2.11821 2.11785 2.39957 1.86943 2.11785 2.117 2.39888 2.11785 2.39957 2.39888 2.71828 1.28041 1.4634 1.4636 1.65061 1.4634 1.64638 1.65061 1.87026 1.4636 1.65061 1.6468 1.8704 1.65061 1.87026 1.8704 2.11857 1.28041 1.4636 1.4634 1.65061 1.4636 1.6468 1.65061 1.8704 1.4634 1.65061 1.64638 1.87026 1.65061 1.8704 1.87026 2.11857 1.6468 1.8704 1.8704 2.11825 1.8704 2.11857 2.11825 2.40034 1.8704 2.11825 2.11857 2.40034 2.11825 2.40034 2.40034 2.71956 1.64638 1.87017 1.87026 2.118 1.87017 2.11821 2.118 2.39994 1.87026 2.118 2.11857 2.40019 2.118 2.39994 2.40019 2.71923 2.11821 2.39957 2.39994 2.71888 2.39957 2.71828 2.71888 3.08022 2.39994 2.71888 2.71923 3.08077 2.71888 3.08022 3.08077 3.49034 2.11857 2.40019 2.40034 2.71951 2.40019 2.71923 2.71951 3.08115 2.40034 2.71951 2.71956 3.08135 2.71951 3.08115 3.08135 3.49122 2.71923 3.08077 3.08115 3.49087 3.08077 3.49034 3.49087 3.95508 3.08115 3.49087 3.49122 3.95559 3.49087 3.95508 3.95559 4.48169 1.64638 1.87026 1.87017 2.118 1.87026 2.11857 2.118 2.40019 1.87017 2.118 2.11821 2.39994 2.118 2.40019 2.39994 2.71923 2.11857 2.40034 2.40019 2.71951 2.40034 2.71956 2.71951 3.08135 2.40019 2.71951 2.71923 3.08115 2.71951 3.08135 3.08115 3.49122 2.11821 2.39994 2.39957 2.71888 2.39994 2.71923 2.71888 3.08077 2.39957 2.71888 2.71828 3.08022 2.71888 3.08077 3.08022 3.49034 2.71923 3.08115 3.08077 3.49087 3.08115 3.49122 3.49087 3.95559 3.08077 3.49087 3.49034 3.95508 3.49087 3.95559 3.95508 4.48169 2.71956 3.08135 3.08135 3.49134 3.08135 3.49122 3.49134 3.95586 3.08135 3.49134 3.49122 3.95586 3.49134 3.95586 3.95586 4.48233 3.49122 3.95559 3.95586 4.48216 3.95559 4.48169 4.48216 5.07842 3.95586 4.48216 4.48233 5.07882 4.48216 5.07842 5.07882 5.7546 3.49122 3.95586 3.95559 4.48216 3.95586 4.48233 4.48216 5.07882 3.95559 4.48216 4.48169 5.07842 4.48216 5.07882 5.07842 5.7546 4.48233 5.07882 5.07882 5.75487 5.07882 5.7546 5.75487 6.52082 5.07882 5.75487 5.7546 6.52082 5.75487 6.52082 6.52082 7.38906 
SCALARS L2_error double 1
LOOKUP_TABLE default
0.000483766 0.000483766 0.000483766 0.000483766 0.000624796 0.000624796 0.000624796 0.000624796 0.000624796 0.000624796 0.000624796 0.000624796 0.000806684 0.000806684 0.000806684 0.000806684 0.000795923 0.000795923 0.000795923 0.000795923 0.00100849 0.00100849 0.00100849 0.00100849 0.00101465 0.00101465 0.00101465 0.00101465 0.00126375 0.00126375 0.00126375 0.00126375 0.000795923 0.000795923 0.000795923 0.000795923 0.00101465 0.00101465 0.00101465 0.00101465 0.00100849 0.00100849 0.00100849 0.00100849 0.00126375 0.00126375 0.00126375 0.00126375 0.00126203 0.00126203 0.00126203 0.00126203 0.00155093 0.00155093 0.00155093 0.00155093 0.00155093 0.00155093 0.00155093 0.00155093 0.00190182 0.00190182 0.00190182 0.00190182 0.00127294 0.00127294 0.00127294 0.00127294 0.00161675 0.00161675 0.00161675 0.00161675 0.00156413 0.00156413 0.00156413 0.00156413 0.00191234 0.00191234 0.00191234 0.00191234 0.00209243 0.00209243 0.00209243 0.00209243 0.00273399 0.00273399 0.00273399 0.00273399 0.00245297 0.00245297 0.00245297 0.00245297 0.00339519 0.00339519 0.00339519 0.00339519 0.00191164 0.00191164 0.00191164 0.00191164 0.00232658 0.00232658 0.00232658 0.00232658 0.00228918 0.00228918 0.00228918 0.00228918 0.00293755 0.00293755 0.00293755 0.00293755 0.00127294 0.00127294 0.00127294 0.00127294 0.00156413 0.00156413 0.00156413 0.00156413 0.00161675 0.00161675 0.00161675 0.00161675 0.00191234 0.00191234 0.00191234 0.00191234 0.00191164 0.00191164 0.00191164 0.00191164 0.00228918 0.00228918 0.00228918 0.00228918 0.00232658 0.00232658 0.00232658 0.00232658 0.00293755 0.00293755 0.00293755 0.00293755 0.00209243 0.00209243 0.00209243 0.00209243 0.00245297 0.00245297 0.00245297 0.00245297 0.00273399 0.00273399 0.00273399 0.00273399 0.00339519 0.00339519 0.00339519 0.00339519 0.00290376 0.00290376 0.00290376 0.00290376 0.000804659 0.000804659 0.000804659 0.000804659 0.000749259 0.000749259 0.000749259 0.000749259 0.000720986 0.000720986 0.000720986 0.000720986 0.000791971 0.000791971 0.000791971 0.000791971 0.000935554 0.000935554 0.000935554 0.000935554 0.000970764 0.000970764 0.000970764 0.000970764 0.000806484 0.000806484 0.000806484 0.000806484 0.000730389 0.000730389 0.000730389 0.000730389 0.000861372 0.000861372 0.000861372 0.000861372 0.000807393 0.000807393 0.000807393 0.000807393 0.000901498 0.000901498 0.000901498 0.000901498 0.000831935 0.000831935 0.000831935 0.000831935 0.000804486 0.000804486 0.000804486 0.000804486 0.000785217 0.000785217 0.000785217 0.000785217 0.000854023 0.000854023 0.000854023 0.000854023 0.000866889 0.000866889 0.000866889 0.000866889 0.000804659 0.000804659 0.000804659 0.000804659 0.000720986 0.000720986 0.000720986 0.000720986 0.000749259 0.000749259 0.000749259 0.000749259 0.000791971 0.000791971 0.000791971 0.000791971 0.000861372 0.000861372 0.000861372 0.000861372 0.000901498 0.000901498 0.000901498 0.000901498 0.000807393 0.000807393 0.000807393 0.000807393 0.000831935 0.000831935 0.000831935 0.000831935 0.000935554 0.000935554 0.000935554 0.000935554 0.000806484 0.000806484 0.000806484 0.000806484 0.000970764 0.000970764 0.000970764 0.000970764 0.000730389 0.000730389 0.000730389 0.000730389 0.000804486 0.000804486 0.000804486 0.000804486 0.000854023 0.000854023 0.000854023 0.000854023 0.000785217 0.000785217 0.000785217 0.000785217 0.000866889 0.000866889 0.000866889 0.000866889 0.000995479 0.000995479 0.000995479 0.000995479 0.000892115 0.000892115 0.000892115 0.000892115 0.000913802 0.000913802 0.000913802 0.000913802 0.000869411 0.000869411 0.000869411 0.000869411 0.000995479 0.000995479 0.000995479 0.000995479 0.000913802 0.000913802 0.000913802 0.000913802 0.000892115 0.000892115 0.000892115 0.000892115 0.000869411 0.000869411 0.000869411 0.000869411 0.000756567 0.000756567 0.000756567 0.000756567 0.000917988 0.000917988 0.000917988 0.000917988 0.000917988 0.000917988 0.000917988 0.000917988 0.000984508 0.000984508 0.000984508 0.000984508 0.000726193 0.000726193 0.000726193 0.000726193 0.000880071 0.000880071 0.000880071 0.000880071 0.000901668 0.000901668 0.000901668 0.000901668 0.000950399 0.000950399 0.000950399 0.000950399 0.000927626 0.000927626 0.000927626 0.000927626 0.000968598 0.000968598 0.000968598 0.000968598 0.00102469 0.00102469 0.00102469 0.00102469 0.00108816 0.00108816 0.00108816 0.00108816 0.00098819 0.00098819 0.00098819 0.00098819 0.00106255 0.00106255 0.00106255 0.00106255 0.00108304 0.00108304 0.00108304 0.00108304 0.0011788 0.0011788 0.0011788 0.0011788 0.00114246 0.00114246 0.00114246 0.00114246 0.00122638 0.00122638 0.00122638 0.00122638 0.00127927 0.00127927 0.00127927 0.00127927 0.00138397 0.00138397 0.00138397 0.00138397 0.000726193 0.000726193 0.000726193 0.000726193 0.000901668 0.000901668 0.000901668 0.000901668 0.000880071 0.000880071 0.000880071 0.000880071 0.000950399 0.000950399 0.000950399 0.000950399 0.00098819 0.00098819 0.00098819 0.00098819 0.00108304 0.00108304 0.00108304 0.00108304 0.00106255 0.00106255 0.00106255 0.00106255 0.0011788 0.0011788 0.0011788 0.0011788 0.000927626 0.000927626 0.000927626 0.000927626 0.00102469 0.00102469 0.00102469 0.00102469 0.000968598 0.000968598 0.000968598 0.000968598 0.00108816 0.00108816 0.00108816 0.00108816 0.00114246 0.00114246 0.00114246 0.00114246 0.00127927 0.00127927 0.00127927 0.00127927 0.00122638 0.00122638 0.00122638 0.00122638 0.00138397 0.00138397 0.00138397 0.00138397 0.00118972 0.00118972 0.00118972 0.00118972 0.00130741 0.00130741 0.00130741 0.00130741 0.00130741 0.00130741 0.00130741 0.00130741 0.00144878 0.00144878 0.00144878 0.00144878 0.00143194 0.00143194 0.00143194 0.00143194 0.00156229 0.00156229 0.00156229 0.00156229 0.00160159 0.00160159 0.00160159 0.00160159 0.00176308 0.00176308 0.00176308 0.00176308 0.00143194 0.00143194 0.00143194 0.00143194 0.00160159 0.00160159 0.00160159 0.00160159 0.00156229 0.00156229 0.00156229 0.00156229 0.00176308 0.00176308 0.00176308 0.00176308 0.00178805 0.00178805 0.00178805 0.00178805 0.00198839 0.00198839 0.00198839 0.00198839 0.00198839 0.00198839 0.00198839 0.00198839 0.00223873 0.00223873 0.00223873 0.00223873 
SCALARS H1_error double 1
LOOKUP_TABLE default
0.00451088 0.00451088 0.00451088 0.00451088 0.00579139 0.00579139 0.00579139 0.00579139 0.00579139 0.00579139 0.00579139 0.00579139 0.00742863 0.00742863 0.00742863 0.00742863 0.00743099 0.00743099 0.00743099 0.00743099 0.00953321 0.00953321 0.00953321 0.00953321 0.0095293 0.0095293 0.0095293 0.0095293 0.0122257 0.0122257 0.0122257 0.0122257 0.00743099 0.00743099 0.00743099 0.00743099 0.0095293 0.0095293 0.0095293 0.0095293 0.00953321 0.00953321 0.00953321 0.00953321 0.0122257 0.0122257 0.0122257 0.0122257 0.0122243 0.0122243 0.0122243 0.0122243 0.015682 0.015682 0.015682 0.015682 0.015682 0.015682 0.015682 0.015682 0.0201265 0.0201265 0.0201265 0.0201265 0.0122299 0.0122299 0.0122299 0.0122299 0.0157005 0.0157005 0.0157005 0.0157005 0.0156856 0.0156856 0.0156856 0.0156856 0.0201248 0.0201248 0.0201248 0.0201248 0.0201754 0.0201754 0.0201754 0.0201754 0.0259278 0.0259278 0.0259278 0.0259278 0.0258725 0.0258725 0.0258725 0.0258725 0.0333372 0.0333372 0.0333372 0.0333372 0.0201276 0.0201276 0.0201276 0.0201276 0.0258307 0.0258307 0.0258307 0.0258307 0.0258232 0.0258232 0.0258232 0.0258232 0.0332222 0.0332222 0.0332222 0.0332222 0.0122299 0.0122299 0.0122299 0.0122299 0.0156856 0.0156856 0.0156856 0.0156856 0.0157005 0.0157005 0.0157005 0.0157005 0.0201248 0.0201248 0.0201248 0.0201248 0.0201276 0.0201276 0.0201276 0.0201276 0.0258232 0.0258232 0.0258232 0.0258232 0.0258307 0.0258307 0.0258307 0.0258307 0.0332222 0.0332222 0.0332222 0.0332222 0.0201754 0.0201754 0.0201754 0.0201754 0.0258725 0.0258725 0.0258725 0.0258725 0.0259278 0.0259278 0.0259278 0.0259278 0.0333372 0.0333372 0.0333372 0.0333372 0.0332519 0.0332519 0.0332519 0.0332519 0.00963951 0.00963951 0.00963951 0.00963951 0.00989938 0.00989938 0.00989938 0.00989938 0.0100081 0.0100081 0.0100081 0.0100081 0.00938831 0.00938831 0.00938831 0.00938831 0.0124272 0.0124272 0.0124272 0.0124272 0.0131817 0.0131817 0.0131817 0.0131817 0.0106158 0.0106158 0.0106158 0.0106158 0.0120261 0.0120261 0.0120261 0.0120261 0.0119879 0.0119879 0.0119879 0.0119879 0.0105893 0.0105893 0.0105893 0.0105893 0.0127558 0.0127558 0.0127558 0.0127558 0.0119746 0.0119746 0.0119746 0.0119746 0.0119747 0.0119747 0.0119747 0.0119747 0.0135718 0.0135718 0.0135718 0.0135718 0.0135607 0.0135607 0.0135607 0.0135607 0.0153647 0.0153647 0.0153647 0.0153647 0.00963951 0.00963951 0.00963951 0.00963951 0.0100081 0.0100081 0.0100081 0.0100081 0.00989938 0.00989938 0.00989938 0.00989938 0.00938831 0.00938831 0.00938831 0.00938831 0.0119879 0.0119879 0.0119879 0.0119879 0.0127558 0.0127558 0.0127558 0.0127558 0.0105893 0.0105893 0.0105893 0.0105893 0.0119746 0.0119746 0.0119746 0.0119746 0.0124272 0.0124272 0.0124272 0.0124272 0.0106158 0.0106158 0.0106158 0.0106158 0.0131817 0.0131817 0.0131817 0.0131817 0.0120261 0.0120261 0.0120261 0.0120261 0.0119747 0.0119747 0.0119747 0.0119747 0.0135607 0.0135607 0.0135607 0.0135607 0.0135718 0.0135718 0.0135718 0.0135718 0.0153647 0.0153647 0.0153647 0.0153647 0.0128022 0.0128022 0.0128022 0.0128022 0.0125536 0.0125536 0.0125536 0.0125536 0.0124948 0.0124948 0.0124948 0.0124948 0.0119779 0.0119779 0.0119779 0.0119779 0.0128022 0.0128022 0.0128022 0.0128022 0.0124948 0.0124948 0.0124948 0.0124948 0.0125536 0.0125536 0.0125536 0.0125536 0.0119779 0.0119779 0.0119779 0.0119779 0.0124273 0.0124273 0.0124273 0.0124273 0.0135675 0.0135675 0.0135675 0.0135675 0.0135675 0.0135675 0.0135675 0.0135675 0.0153751 0.0153751 0.0153751 0.0153751 0.0124705 0.0124705 0.0124705 0.0124705 0.0135642 0.0135642 0.0135642 0.0135642 0.0135703 0.0135703 0.0135703 0.0135703 0.0153722 0.0153722 0.0153722 0.0153722 0.0153628 0.0153628 0.0153628 0.0153628 0.0174062 0.0174062 0.0174062 0.0174062 0.0174074 0.0174074 0.0174074 0.0174074 0.0197228 0.0197228 0.0197228 0.0197228 0.0153674 0.0153674 0.0153674 0.0153674 0.0174108 0.0174108 0.0174108 0.0174108 0.0174118 0.0174118 0.0174118 0.0174118 0.0197279 0.0197279 0.0197279 0.0197279 0.0197261 0.0197261 0.0197261 0.0197261 0.0223486 0.0223486 0.0223486 0.0223486 0.0223517 0.0223517 0.0223517 0.0223517 0.0253244 0.0253244 0.0253244 0.0253244 0.0124705 0.0124705 0.0124705 0.0124705 0.0135703 0.0135703 0.0135703 0.0135703 0.0135642 0.0135642 0.0135642 0.0135642 0.0153722 0.0153722 0.0153722 0.0153722 0.0153674 0.0153674 0.0153674 0.0153674 0.0174118 0.0174118 0.0174118 0.0174118 0.0174108 0.0174108 0.0174108 0.0174108 0.0197279 0.0197279 0.0197279 0.0197279 0.0153628 0.0153628 0.0153628 0.0153628 0.0174074 0.0174074 0.0174074 0.0174074 0.0174062 0.0174062 0.0174062 0.0174062 0.0197228 0.0197228 0.0197228 0.0197228 0.0197261 0.0197261 0.0197261 0.0197261 0.0223517 0.0223517 0.0223517 0.0223517 0.0223486 0.0223486 0.0223486 0.0223486 0.0253244 0.0253244 0.0253244 0.0253244 0.0197292 0.0197292 0.0197292 0.0197292 0.0223534 0.0223534 0.0223534 0.0223534 0.0223534 0.0223534 0.0223534 0.0223534 0.0253284 0.0253284 0.0253284 0.0253284 0.0253272 0.0253272 0.0253272 0.0253272 0.0286964 0.0286964 0.0286964 0.0286964 0.028699 0.028699 0.028699 0.028699 0.0325178 0.0325178 0.0325178 0.0325178 0.0253272 0.0253272 0.0253272 0.0253272 0.028699 0.028699 0.028699 0.028699 0.0286964 0.0286964 0.0286964 0.0286964 0.0325178 0.0325178 0.0325178 0.0325178 0.0325198 0.0325198 0.0325198 0.0325198 0.0368487 0.0368487 0.0368487 0.0368487 0.0368487 0.0368487 0.0368487 0.0368487 0.0417577 0.0417577 0.0417577 0.0417577 
SCALARS error_estimator double 1
LOOKUP_TABLE default