# vtk DataFile Version 3.0
#This file was generated by the deal.II library on 2020/3/18 at 14:23:43
ASCII
DATASET UNSTRUCTURED_GRID

POINTS 16384 double
-1 -1 0
-0.96875 -1 0
-1 -0.96875 0
-0.96875 -0.96875 0
-0.96875 -1 0
-0.9375 -1 0
-0.96875 -0.96875 0
-0.9375 -0.96875 0
-1 -0.96875 0
-0.96875 -0.96875 0
-1 -0.9375 0
-0.96875 -0.9375 0
-0.96875 -0.96875 0
-0.9375 -0.96875 0
-0.96875 -0.9375 0
-0.9375 -0.9375 0
-0.9375 -1 0
-0.90625 -1 0
-0.9375 -0.96875 0
-0.90625 -0.96875 0
-0.90625 -1 0
-0.875 -1 0
-0.90625 -0.96875 0
-0.875 -0.96875 0
-0.9375 -0.96875 0
-0.90625 -0.96875 0
-0.9375 -0.9375 0
-0.90625 -0.9375 0
-0.90625 -0.96875 0
-0.875 -0.96875 0
-0.90625 -0.9375 0
-0.875 -0.9375 0
-1 -0.9375 0
-0.96875 -0.9375 0
-1 -0.90625 0
-0.96875 -0.90625 0
-0.96875 -0.9375 0
-0.9375 -0.9375 0
-0.96875 -0.90625 0
-0.9375 -0.90625 0
-1 -0.90625 0
-0.96875 -0.90625 0
-1 -0.875 0
-0.96875 -0.875 0
-0.96875 -0.90625 0
-0.9375 -0.90625 0
-0.96875 -0.875 0
-0.9375 -0.875 0
-0.9375 -0.9375 0
-0.90625 -0.9375 0
-0.9375 -0.90625 0
-0.90625 -0.90625 0
-0.90625 -0.9375 0
-0.875 -0.9375 0
-0.90625 -0.90625 0
-0.875 -0.90625 0
-0.9375 -0.90625 0
-0.90625 -0.90625 0
-0.9375 -0.875 0
-0.90625 -0.875 0
-0.90625 -0.90625 0
-0.875 -0.90625 0
-0.90625 -0.875 0
-0.875 -0.875 0
-0.875 -1 0
-0.84375 -1 0
-0.875 -0.96875 0
-0.84375 -0.96875 0
-0.84375 -1 0
-0.8125 -1 0
-0.84375 -0.96875 0
-0.8125 -0.96875 0
-0.875 -0.96875 0
-0.84375 -0.96875 0
-0.875 -0.9375 0
-0.84375 -0.9375 0
-0.84375 -0.96875 0
-0.8125 -0.96875 0
-0.84375 -0.9375 0
-0.8125 -0.9375 0
-0.8125 -1 0
-0.78125 -1 0
-0.8125 -0.96875 0
-0.78125 -0.96875 0
-0.78125 -1 0
-0.75 -1 0
-0.78125 -0.96875 0
-0.75 -0.96875 0
-0.8125 -0.96875 0
-0.78125 -0.96875 0
-0.8125 -0.9375 0
-0.78125 -0.9375 0
-0.78125 -0.96875 0
-0.75 -0.96875 0
-0.78125 -0.9375 0
-0.75 -0.9375 0
-0.875 -0.9375 0
-0.84375 -0.9375 0
-0.875 -0.90625 0
-0.84375 -0.90625 0
-0.84375 -0.9375 0
-0.8125 -0.9375 0
-0.84375 -0.90625 0
-0.8125 -0.90625 0
-0.875 -0.90625 0
-0.84375 -0.90625 0
-0.875 -0.875 0
-0.84375 -0.875 0
-0.84375 -0.90625 0
-0.8125 -0.90625 0
-0.84375 -0.875 0
-0.8125 -0.875 0
-0.8125 -0.9375 0
-0.78125 -0.9375 0
-0.8125 -0.90625 0
-0.78125 -0.90625 0
-0.78125 -0.9375 0
-0.75 -0.9375 0
-0.78125 -0.90625 0
-0.75 -0.90625 0
-0.8125 -0.90625 0
-0.78125 -0.90625 0
-0.8125 -0.875 0
-0.78125 -0.875 0
-0.78125 -0.90625 0
-0.75 -0.90625 0
-0.78125 -0.875 0
-0.75 -0.875 0
-1 -0.875 0
-0.96875 -0.875 0
-1 -0.84375 0
-0.96875 -0.84375 0
-0.96875 -0.875 0
-0.9375 -0.875 0
-0.96875 -0.84375 0
-0.9375 -0.84375 0
-1 -0.84375 0
-0.96875 -0.84375 0
-1 -0.8125 0
-0.96875 -0.8125 0
-0.96875 -0.84375 0
-0.9375 -0.84375 0
-0.96875 -0.8125 0
-0.9375 -0.8125 0
-0.9375 -0.875 0
-0.90625 -0.875 0
-0.9375 -0.84375 0
-0.90625 -0.84375 0
-0.90625 -0.875 0
-0.875 -0.875 0
-0.90625 -0.84375 0
-0.875 -0.84375 0
-0.9375 -0.84375 0
-0.90625 -0.84375 0
-0.9375 -0.8125 0
-0.90625 -0.8125 0
-0.90625 -0.84375 0
-0.875 -0.84375 0
-0.90625 -0.8125 0
-0.875 -0.8125 0
-1 -0.8125 0
-0.96875 -0.8125 0
-1 -0.78125 0
-0.96875 -0.78125 0
-0.96875 -0.8125 0
-0.9375 -0.8125 0
-0.96875 -0.78125 0
-0.9375 -0.78125 0
-1 -0.78125 0
-0.96875 -0.78125 0
-1 -0.75 0
-0.96875 -0.75 0
-0.96875 -0.78125 0
-0.9375 -0.78125 0
-0.96875 -0.75 0
-0.9375 -0.75 0
-0.9375 -0.8125 0
-0.90625 -0.8125 0
-0.9375 -0.78125 0
-0.90625 -0.78125 0
-0.90625 -0.8125 0
-0.875 -0.8125 0
-0.90625 -0.78125 0
-0.875 -0.78125 0
-0.9375 -0.78125 0
-0.90625 -0.78125 0
-0.9375 -0.75 0
-0.90625 -0.75 0
-0.90625 -0.78125 0
-0.875 -0.78125 0
-0.90625 -0.75 0
-0.875 -0.75 0
-0.875 -0.875 0
-0.84375 -0.875 0
-0.875 -0.84375 0
-0.84375 -0.84375 0
-0.84375 -0.875 0
-0.8125 -0.875 0
-0.84375 -0.84375 0
-0.8125 -0.84375 0
-0.875 -0.84375 0
-0.84375 -0.84375 0
-0.875 -0.8125 0
-0.84375 -0.8125 0
-0.84375 -0.84375 0
-0.8125 -0.84375 0
-0.84375 -0.8125 0
-0.8125 -0.8125 0
-0.8125 -0.875 0
-0.78125 -0.875 0
-0.8125 -0.84375 0
-0.78125 -0.84375 0
-0.78125 -0.875 0
-0.75 -0.875 0
-0.78125 -0.84375 0
-0.75 -0.84375 0
-0.8125 -0.84375 0
-0.78125 -0.84375 0
-0.8125 -0.8125 0
-0.78125 -0.8125 0
-0.78125 -0.84375 0
-0.75 -0.84375 0
-0.78125 -0.8125 0
-0.75 -0.8125 0
-0.875 -0.8125 0
-0.84375 -0.8125 0
-0.875 -0.78125 0
-0.84375 -0.78125 0
-0.84375 -0.8125 0
-0.8125 -0.8125 0
-0.84375 -0.78125 0
-0.8125 -0.78125 0
-0.875 -0.78125 0
-0.84375 -0.78125 0
-0.875 -0.75 0
-0.84375 -0.75 0
-0.84375 -0.78125 0
-0.8125 -0.78125 0
-0.84375 -0.75 0
-0.8125 -0.75 0
-0.8125 -0.8125 0
-0.78125 -0.8125 0
-0.8125 -0.78125 0
-0.78125 -0.78125 0
-0.78125 -0.8125 0
-0.75 -0.8125 0
-0.78125 -0.78125 0
-0.75 -0.78125 0
-0.8125 -0.78125 0
-0.78125 -0.78125 0
-0.8125 -0.75 0
-0.78125 -0.75 0
-0.78125 -0.78125 0
-0.75 -0.78125 0
-0.78125 -0.75 0
-0.75 -0.75 0
-0.75 -1 0
-0.71875 -1 0
-0.75 -0.96875 0
-0.71875 -0.96875 0
-0.71875 -1 0
-0.6875 -1 0
-0.71875 -0.96875 0
-0.6875 -0.96875 0
-0.75 -0.96875 0
-0.71875 -0.96875 0
-0.75 -0.9375 0
-0.71875 -0.9375 0
-0.71875 -0.96875 0
-0.6875 -0.96875 0
-0.71875 -0.9375 0
-0.6875 -0.9375 0
-0.6875 -1 0
-0.65625 -1 0
-0.6875 -0.96875 0
-0.65625 -0.96875 0
-0.65625 -1 0
-0.625 -1 0
-0.65625 -0.96875 0
-0.625 -0.96875 0
-0.6875 -0.96875 0
-0.65625 -0.96875 0
-0.6875 -0.9375 0
-0.65625 -0.9375 0
-0.65625 -0.96875 0
-0.625 -0.96875 0
-0.65625 -0.9375 0
-0.625 -0.9375 0
-0.75 -0.9375 0
-0.71875 -0.9375 0
-0.75 -0.90625 0
-0.71875 -0.90625 0
-0.71875 -0.9375 0
-0.6875 -0.9375 0
-0.71875 -0.90625 0
-0.6875 -0.90625 0
-0.75 -0.90625 0
-0.71875 -0.90625 0
-0.75 -0.875 0
-0.71875 -0.875 0
-0.71875 -0.90625 0
-0.6875 -0.90625 0
-0.71875 -0.875 0
-0.6875 -0.875 0
-0.6875 -0.9375 0
-0.65625 -0.9375 0
-0.6875 -0.90625 0
-0.65625 -0.90625 0
-0.65625 -0.9375 0
-0.625 -0.9375 0
-0.65625 -0.90625 0
-0.625 -0.90625 0
-0.6875 -0.90625 0
-0.65625 -0.90625 0
-0.6875 -0.875 0
-0.65625 -0.875 0
-0.65625 -0.90625 0
-0.625 -0.90625 0
-0.65625 -0.875 0
-0.625 -0.875 0
-0.625 -1 0
-0.59375 -1 0
-0.625 -0.96875 0
-0.59375 -0.96875 0
-0.59375 -1 0
-0.5625 -1 0
-0.59375 -0.96875 0
-0.5625 -0.96875 0
-0.625 -0.96875 0
-0.59375 -0.96875 0
-0.625 -0.9375 0
-0.59375 -0.9375 0
-0.59375 -0.96875 0
-0.5625 -0.96875 0
-0.59375 -0.9375 0
-0.5625 -0.9375 0
-0.5625 -1 0
-0.53125 -1 0
-0.5625 -0.96875 0
-0.53125 -0.96875 0
-0.53125 -1 0
-0.5 -1 0
-0.53125 -0.96875 0
-0.5 -0.96875 0
-0.5625 -0.96875 0
-0.53125 -0.96875 0
-0.5625 -0.9375 0
-0.53125 -0.9375 0
-0.53125 -0.96875 0
-0.5 -0.96875 0
-0.53125 -0.9375 0
-0.5 -0.9375 0
-0.625 -0.9375 0
-0.59375 -0.9375 0
-0.625 -0.90625 0
-0.59375 -0.90625 0
-0.59375 -0.9375 0
-0.5625 -0.9375 0
-0.59375 -0.90625 0
-0.5625 -0.90625 0
-0.625 -0.90625 0
-0.59375 -0.90625 0
-0.625 -0.875 0
-0.59375 -0.875 0
-0.59375 -0.90625 0
-0.5625 -0.90625 0
-0.59375 -0.875 0
-0.5625 -0.875 0
-0.5625 -0.9375 0
-0.53125 -0.9375 0
-0.5625 -0.90625 0
-0.53125 -0.90625 0
-0.53125 -0.9375 0
-0.5 -0.9375 0
-0.53125 -0.90625 0
-0.5 -0.90625 0
-0.5625 -0.90625 0
-0.53125 -0.90625 0
-0.5625 -0.875 0
-0.53125 -0.875 0
-0.53125 -0.90625 0
-0.5 -0.90625 0
-0.53125 -0.875 0
-0.5 -0.875 0
-0.75 -0.875 0
-0.71875 -0.875 0
-0.75 -0.84375 0
-0.71875 -0.84375 0
-0.71875 -0.875 0
-0.6875 -0.875 0
-0.71875 -0.84375 0
-0.6875 -0.84375 0
-0.75 -0.84375 0
-0.71875 -0.84375 0
-0.75 -0.8125 0
-0.71875 -0.8125 0
-0.71875 -0.84375 0
-0.6875 -0.84375 0
-0.71875 -0.8125 0
-0.6875 -0.8125 0
-0.6875 -0.875 0
-0.65625 -0.875 0
-0.6875 -0.84375 0
-0.65625 -0.84375 0
-0.65625 -0.875 0
-0.625 -0.875 0
-0.65625 -0.84375 0
-0.625 -0.84375 0
-0.6875 -0.84375 0
-0.65625 -0.84375 0
-0.6875 -0.8125 0
-0.65625 -0.8125 0
-0.65625 -0.84375 0
-0.625 -0.84375 0
-0.65625 -0.8125 0
-0.625 -0.8125 0
-0.75 -0.8125 0
-0.71875 -0.8125 0
-0.75 -0.78125 0
-0.71875 -0.78125 0
-0.71875 -0.8125 0
-0.6875 -0.8125 0
-0.71875 -0.78125 0
-0.6875 -0.78125 0
-0.75 -0.78125 0
-0.71875 -0.78125 0
-0.75 -0.75 0
-0.71875 -0.75 0
-0.71875 -0.78125 0
-0.6875 -0.78125 0
-0.71875 -0.75 0
-0.6875 -0.75 0
-0.6875 -0.8125 0
-0.65625 -0.8125 0
-0.6875 -0.78125 0
-0.65625 -0.78125 0
-0.65625 -0.8125 0
-0.625 -0.8125 0
-0.65625 -0.78125 0
-0.625 -0.78125 0
-0.6875 -0.78125 0
-0.65625 -0.78125 0
-0.6875 -0.75 0
-0.65625 -0.75 0
-0.65625 -0.78125 0
-0.625 -0.78125 0
-0.65625 -0.75 0
-0.625 -0.75 0
-0.625 -0.875 0
-0.59375 -0.875 0
-0.625 -0.84375 0
-0.59375 -0.84375 0
-0.59375 -0.875 0
-0.5625 -0.875 0
-0.59375 -0.84375 0
-0.5625 -0.84375 0
-0.625 -0.84375 0
-0.59375 -0.84375 0
-0.625 -0.8125 0
-0.59375 -0.8125 0
-0.59375 -0.84375 0
-0.5625 -0.84375 0
-0.59375 -0.8125 0
-0.5625 -0.8125 0
-0.5625 -0.875 0
-0.53125 -0.875 0
-0.5625 -0.84375 0
-0.53125 -0.84375 0
-0.53125 -0.875 0
-0.5 -0.875 0
-0.53125 -0.84375 0
-0.5 -0.84375 0
-0.5625 -0.84375 0
-0.53125 -0.84375 0
-0.5625 -0.8125 0
-0.53125 -0.8125 0
-0.53125 -0.84375 0
-0.5 -0.84375 0
-0.53125 -0.8125 0
-0.5 -0.8125 0
-0.625 -0.8125 0
-0.59375 -0.8125 0
-0.625 -0.78125 0
-0.59375 -0.78125 0
-0.59375 -0.8125 0
-0.5625 -0.8125 0
-0.59375 -0.78125 0
-0.5625 -0.78125 0
-0.625 -0.78125 0
-0.59375 -0.78125 0
-0.625 -0.75 0
-0.59375 -0.75 0
-0.59375 -0.78125 0
-0.5625 -0.78125 0
-0.59375 -0.75 0
-0.5625 -0.75 0
-0.5625 -0.8125 0
-0.53125 -0.8125 0
-0.5625 -0.78125 0
-0.53125 -0.78125 0
-0.53125 -0.8125 0
-0.5 -0.8125 0
-0.53125 -0.78125 0
-0.5 -0.78125 0
-0.5625 -0.78125 0
-0.53125 -0.78125 0
-0.5625 -0.75 0
-0.53125 -0.75 0
-0.53125 -0.78125 0
-0.5 -0.78125 0
-0.53125 -0.75 0
-0.5 -0.75 0
-1 -0.75 0
-0.96875 -0.75 0
-1 -0.71875 0
-0.96875 -0.71875 0
-0.96875 -0.75 0
-0.9375 -0.75 0
-0.96875 -0.71875 0
-0.9375 -0.71875 0
-1 -0.71875 0
-0.96875 -0.71875 0
-1 -0.6875 0
-0.96875 -0.6875 0
-0.96875 -0.71875 0
-0.9375 -0.71875 0
-0.96875 -0.6875 0
-0.9375 -0.6875 0
-0.9375 -0.75 0
-0.90625 -0.75 0
-0.9375 -0.71875 0
-0.90625 -0.71875 0
-0.90625 -0.75 0
-0.875 -0.75 0
-0.90625 -0.71875 0
-0.875 -0.71875 0
-0.9375 -0.71875 0
-0.90625 -0.71875 0
-0.9375 -0.6875 0
-0.90625 -0.6875 0
-0.90625 -0.71875 0
-0.875 -0.71875 0
-0.90625 -0.6875 0
-0.875 -0.6875 0
-1 -0.6875 0
-0.96875 -0.6875 0
-1 -0.65625 0
-0.96875 -0.65625 0
-0.96875 -0.6875 0
[...]
POINT_DATA 16384
SCALARS solution double 1
LOOKUP_TABLE default
0.135335 0.139631 0.139631 0.144064 0.139631 0.144064 0.144064 0.148637 0.139631 0.144064 0.144064 0.148637 0.144064 0.148637 0.148637 0.153355 0.144064 0.148637 0.148637 0.153355 0.148637 0.153355 0.153355 0.158223 0.148637 0.153355 0.153355 0.158224 0.153355 0.158223 0.158224 0.163246 0.144064 0.148637 0.148637 0.153355 0.148637 0.153355 0.153355 0.158224 0.148637 0.153355 0.153355 0.158223 0.153355 0.158224 0.158223 0.163246 0.153355 0.158224 0.158224 0.163247 0.158224 0.163246 0.163247 0.168429 0.158224 0.163247 0.163246 0.168429 0.163247 0.168429 0.168429 0.173776 0.153355 0.158223 0.158223 0.163246 0.158223 0.163246 0.163246 0.168428 0.158223 0.163246 0.163246 0.168429 0.163246 0.168428 0.168429 0.173775 0.163246 0.168427 0.168428 0.173775 0.168427 0.173774 0.173775 0.179291 0.168428 0.173775 0.173775 0.179292 0.173775 0.179291 0.179292 0.184983 0.163246 0.168429 0.168429 0.173776 0.168429 0.173775 0.173776 0.179292 0.168429 0.173776 0.173776 0.179292 0.173776 0.179292 0.179292 0.184984 0.173775 0.179292 0.179292 0.184984 0.179292 0.184983 0.184984 0.190856 0.179292 0.184984 0.184984 0.190856 0.184984 0.190856 0.190856 0.196915 0.153355 0.158223 0.158223 0.163246 0.158223 0.163246 0.163246 0.168429 0.158223 0.163246 0.163246 0.168428 0.163246 0.168429 0.168428 0.173775 0.163246 0.168429 0.168429 0.173776 0.168429 0.173776 0.173776 0.179292 0.168429 0.173776 0.173775 0.179292 0.173776 0.179292 0.179292 0.184984 0.163246 0.168428 0.168427 0.173775 0.168428 0.173775 0.173775 0.179292 0.168427 0.173775 0.173774 0.179291 0.173775 0.179292 0.179291 0.184983 0.173775 0.179292 0.179292 0.184984 0.179292 0.184984 0.184984 0.190856 0.179292 0.184984 0.184983 0.190856 0.184984 0.190856 0.190856 0.196915 0.173776 0.179292 0.179292 0.184984 0.179292 0.184984 0.184984 0.190857 0.179292 0.184984 0.184984 0.190857 0.184984 0.190857 0.190857 0.196915 0.184984 0.190856 0.190857 0.196915 0.190856 0.196915 0.196915 0.203166 0.190857 0.196915 0.196915 0.203167 0.196915 0.203166 0.203167 0.209616 0.184984 0.190857 0.190856 0.196915 0.190857 0.196915 0.196915 0.203167 0.190856 0.196915 0.196915 0.203166 0.196915 0.203167 0.203166 0.209616 0.196915 0.203167 0.203167 0.209616 0.203167 0.209616 0.209616 0.216271 0.203167 0.209616 0.209616 0.216271 0.209616 0.216271 0.216271 0.223137 0.173774 0.17929 0.179291 0.184982 0.17929 0.184981 0.184982 0.190854 0.179291 0.184982 0.184983 0.190855 0.184982 0.190854 0.190855 0.196914 0.184981 0.190853 0.190854 0.196913 0.190853 0.196912 0.196913 0.203164 0.190854 0.196913 0.196914 0.203165 0.196913 0.203164 0.203165 0.209614 0.184983 0.190855 0.190856 0.196915 0.190855 0.196914 0.196915 0.203165 0.190856 0.196915 0.196915 0.203166 0.196915 0.203165 0.203166 0.209615 0.196914 0.203165 0.203165 0.209615 0.203165 0.209614 0.209615 0.216269 0.203165 0.209615 0.209615 0.21627 0.209615 0.216269 0.21627 0.223135 0.196912 0.203162 0.203164 0.209613 0.203162 0.209611 0.209613 0.216267 0.203164 0.209613 0.209614 0.216268 0.209613 0.216267 0.216268 0.223133 0.209611 0.216265 0.216267 0.223132 0.216265 0.22313 0.223132 0.230215 0.216267 0.223132 0.223133 0.230216 0.223132 0.230215 0.230216 0.237524 0.209614 0.216268 0.216269 0.223134 0.216268 0.223133 0.223134 0.230217 0.216269 0.223134 0.223135 0.230218 0.223134 0.230217 0.230218 0.237526 0.223133 0.230216 0.230217 0.237525 0.230216 0.237524 0.237525 0.245065 0.230217 0.237525 0.237526 0.245066 0.237525 0.245065 0.245066 0.252846 0.196915 0.203166 0.203166 0.209616 0.203166 0.209615 0.209616 0.21627 0.203166 0.209616 0.209616 0.216271 0.209616 0.21627 0.216271 0.223136 0.209615 0.21627 0.21627 0.223136 0.21627 0.223135 0.223136 0.230219 0.21627 0.223136 0.223136 0.23022 0.223136 0.230219 0.23022 0.237528 0.209616 0.216271 0.216271 0.223136 0.216271 0.223136 0.223136 0.23022 0.216271 0.223136 0.223137 0.23022 0.223136 0.23022 0.23022 0.237529 0.223136 0.23022 0.23022 0.237528 0.23022 0.237528 0.237528 0.245069 0.23022 0.237528 0.237529 0.245069 0.237528 0.245069 0.245069 0.252849 0.223135 0.230218 0.230219 0.237527 0.230218 0.237526 0.237527 0.245067 0.230219 0.237527 0.237528 0.245068 0.237527 0.245067 0.245068 0.252848 0.237526 0.245066 0.245067 0.252847 0.245066 0.252846 0.252847 0.260873 0.245067 0.252847 0.252848 0.260874 0.252847 0.260873 0.260874 0.269155 0.237528 0.245068 0.245069 0.252848 0.245068 0.252848 0.252848 0.260875 0.245069 0.252848 0.252849 0.260875 0.252848 0.260875 0.260875 0.269157 0.252848 0.260874 0.260875 0.269156 0.260874 0.269155 0.269156 0.2777 0.260875 0.269156 0.269157 0.277701 0.269156 0.2777 0.277701 0.286516 0.173774 0.179291 0.17929 0.184982 0.179291 0.184983 0.184982 0.190855 0.17929 0.184982 0.184981 0.190854 0.184982 0.190855 0.190854 0.196914 0.184983 0.190856 0.190855 0.196915 0.190856 0.196915 0.196915 0.203166 0.190855 0.196915 0.196914 0.203165 0.196915 0.203166 0.203165 0.209615 0.184981 0.190854 0.190853 0.196913 0.190854 0.196914 0.196913 0.203165 0.190853 0.196913 0.196912 0.203164 0.196913 0.203165 0.203164 0.209614 0.196914 0.203165 0.203165 0.209615 0.203165 0.209615 0.209615 0.21627 0.203165 0.209615 0.209614 0.216269 0.209615 0.21627 0.216269 0.223135 0.196915 0.203166 0.203166 0.209616 0.203166 0.209616 0.209616 0.216271 0.203166 0.209616 0.209615 0.21627 0.209616 0.216271 0.21627 0.223136 0.209616 0.216271 0.216271 0.223136 0.216271 0.223137 0.223136 0.23022 0.216271 0.223136 0.223136 0.23022 0.223136 0.23022 0.23022 0.237529 0.209615 0.21627 0.21627 0.223136 0.21627 0.223136 0.223136 0.23022 0.21627 0.223136 0.223135 0.230219 0.223136 0.23022 0.230219 0.237528 0.223136 0.23022 0.23022 0.237528 0.23022 0.237529 0.237528 0.245069 0.23022 0.237528 0.237528 0.245069 0.237528 0.245069 0.245069 0.252849 0.196912 0.203164 0.203162 0.209613 0.203164 0.209614 0.209613 0.216268 0.203162 0.209613 0.209611 0.216267 0.209613 0.216268 0.216267 0.223133 0.209614 0.216269 0.216268 0.223134 0.216269 0.223135 0.223134 0.230218 0.216268 0.223134 0.223133 0.230217 0.223134 0.230218 0.230217 0.237526 0.209611 0.216267 0.216265 0.223132 0.216267 0.223133 0.223132 0.230216 0.216265 0.223132 0.22313 0.230215 0.223132 0.230216 0.230215 0.237524 0.223133 0.230217 0.230216 0.237525 0.230217 0.237526 0.237525 0.245066 0.230216 0.237525 0.237524 0.245065 0.237525 0.245066 0.245065 0.252846 0.223135 0.230219 0.230218 0.237527 0.230219 0.237528 0.237527 0.245068 0.230218 0.237527 0.237526 0.245067 0.237527 0.245068 0.245067 0.252848 0.237528 0.245069 0.245068 0.252848 0.245069 0.252849 0.252848 0.260875 0.245068 0.252848 0.252848 0.260875 0.252848 0.260875 0.260875 0.269157 0.237526 0.245067 0.245066 0.252847 0.245067 0.252848 0.252847 0.260874 0.245066 0.252847 0.252846 0.260873 0.252847 0.260874 0.260873 0.269155 0.252848 0.260875 0.260874 0.269156 0.260875 0.269157 0.269156 0.277701 0.260874 0.269156 0.269155 0.2777 0.269156 0.277701 0.2777 0.286516 0.223137 0.23022 0.23022 0.237529 0.23022 0.237529 0.237529 0.245069 0.23022 0.237529 0.237529 0.245069 0.237529 0.245069 0.245069 0.252849 0.237529 0.245069 0.245069 0.252849 0.245069 0.252849 0.252849 0.260876 0.245069 0.252849 0.252849 0.260876 0.252849 0.260876 0.260876 0.269157 0.237529 0.245069 0.245069 0.252849 0.245069 0.252849 0.252849 0.260876 0.245069 0.252849 0.252849 0.260876 0.252849 0.260876 0.260876 0.269157 0.252849 0.260876 0.260876 0.269158 0.260876 0.269157 0.269158 0.277702 0.260876 0.269158 0.269157 0.277702 0.269158 0.277702 0.277702 0.286518 0.252849 0.260875 0.260876 0.269157 0.260875 0.269157 0.269157 0.277701 0.260876 0.269157 0.269157 0.277702 0.269157 0.277701 0.277702 0.286517 0.269157 0.277701 0.277701 0.286517 0.277701 0.286516 0.286517 0.295612 0.277701 0.286517 0.286517 0.295613 0.286517 0.295612 0.295613 0.304997 0.269157 0.277702 0.277702 0.286518 0.277702 0.286517 0.286518 0.295613 0.277702 0.286518 0.286518 0.295613 0.286518 0.295613 0.295613 0.304998 0.286517 0.295613 0.295613 0.304997 0.295613 0.304997 0.304997 0.314679 0.295613 0.304997 0.304998 0.31468 0.304997 0.314679 0.31468 0.324669 0.252849 0.260876 0.260875 0.269157 0.260876 0.269157 0.269157 0.277702 0.260875 0.269157 0.269157 0.277701 0.269157 0.277702 0.277701 0.286517 0.269157 0.277702 0.277702 0.286518 0.277702 0.286518 0.286518 0.295613 0.277702 0.286518 0.286517 0.295613 0.286518 0.295613 0.295613 0.304998 0.269157 0.277701 0.277701 0.286517 0.277701 0.286517 0.286517 0.295613 0.277701 0.286517 0.286516 0.295612 0.286517 0.295613 0.295612 0.304997 0.286517 0.295613 0.295613 0.304997 0.295613 0.304998 0.304997 0.31468 0.295613 0.304997 0.304997 0.314679 0.304997 0.31468 0.314679 0.324669 0.286518 0.295613 0.295613 0.304998 0.295613 0.304998 0.304998 0.31468 0.295613 0.304998 0.304998 0.31468 0.304998 0.31468 0.31468 0.324669 0.304998 0.31468 0.31468 0.324669 0.31468 0.324669 0.324669 0.334976 0.31468 0.324669 0.324669 0.334976 0.324669 0.334976 0.334976 0.34561 0.304998 0.31468 0.31468 0.324669 0.31468 0.324669 0.324669 0.334976 0.31468 0.324669 0.324669 0.334976 0.324669 0.334976 0.334976 0.34561 0.324669 0.334976 0.334976 0.34561 0.334976 0.34561 0.34561 0.356581 0.334976 0.34561 0.34561 0.356581 0.34561 0.356581 0.356581 0.367901 0.22313 0.230213 0.230215 0.237522 0.230213 0.237521 0.237522 0.245062 0.230215 0.237522 0.237524 0.245064 0.237522 0.245062 0.245064 0.252843 0.237521 0.245061 0.245062 0.252841 0.245061 0.25284 0.252841 0.260867 0.245062 0.252841 0.252843 0.260869 0.252841 0.260867 0.260869 0.26915 0.237524 0.245064 0.245065 0.252844 0.245064 0.252843 0.252844 0.260871 0.245065 0.252844 0.252846 0.260872 0.252844 0.260871 0.260872 0.269153 0.252843 0.260869 0.260871 0.269152 0.260869 0.26915 0.269152 0.277695 0.260871 0.269152 0.269153 0.277697 0.269152 0.277695 0.277697 0.286512 0.25284 0.260866 0.260867 0.269148 0.260866 0.269146 0.269148 0.277692 0.260867 0.269148 0.26915 0.277694 0.269148 0.277692 0.277694 0.286509 0.269146 0.27769 0.277692 0.286507 0.27769 0.286505 0.286507 0.295602 0.277692 0.286507 0.286509 0.295604 0.286507 0.295602 0.295604 0.304987 0.26915 0.277694 0.277695 0.28651 0.277694 0.286509 0.28651 0.295605 0.277695 0.28651 0.286512 0.295607 0.28651 0.295605 0.295607 0.30499 0.286509 0.295604 0.295605 0.304989 0.295604 0.304987 0.304989 0.31467 0.295605 0.304989 0.30499 0.314672 0.304989 0.31467 0.314672 0.324661 0.252846 0.260872 0.260873 0.269154 0.260872 0.269153 0.269154 0.277698 0.260873 0.269154 0.269155 0.277699 0.269154 0.277698 0.277699 0.286515 0.269153 0.277697 0.277698 0.286513 0.277697 0.286512 0.286513 0.295608 0.277698 0.286513 0.286515 0.29561 0.286513 0.295608 0.29561 0.304993 0.269155 0.277699 0.2777 0.286516 0.277699 0.286515 0.286516 0.295611 0.2777 0.286516 0.286516 0.295612 0.286516 0.295611 0.295612 0.304995 0.286515 0.29561 0.295611 0.304994 0.29561 0.304993 0.304994 0.314676 0.295611 0.304994 0.304995 0.314677 0.304994 0.314676 0.314677 0.324666 0.286512 0.295607 0.295608 0.304992 0.295607 0.30499 0.304992 0.314674 0.295608 0.304992 0.304993 0.314675 0.304992 0.314674 0.314675 0.324664 0.30499 0.314672 0.314674 0.324662 0.314672 0.324661 0.324662 0.334968 0.314674 0.324662 0.324664 0.33497 0.324662 0.334968 0.33497 0.345603 0.304993 0.314675 0.314676 0.324665 0.314675 0.324664 0.324665 0.334971 0.314676 0.324665 0.324666 0.334972 0.324665 0.334971 0.334972 0.345606 0.324664 0.33497 0.334971 0.345604 0.33497 0.345603 0.345604 0.356575 0.334971 0.345604 0.345606 0.356576 0.345604 0.356575 0.356576 0.367895 0.286505 0.295599 0.295602 0.304985 0.295599 0.304983 0.304985 0.314666 0.295602 0.304985 0.304987 0.314668 0.304985 0.314666 0.314668 0.324657 0.304983 0.314664 0.314666 0.324655 0.314664 0.324652 0.324655 0.33496 0.314666 0.324655 0.324657 0.334963 0.324655 0.33496 0.334963 0.345595 0.304987 0.314668 0.31467 0.324659 0.314668 0.324657 0.324659 0.334965 0.31467 0.324659 0.324661 0.334966 0.324659 0.334965 0.334966 0.345599 0.324657 0.334963 0.334965 0.345597 0.334963 0.345595 0.345597 0.356568 0.334965 0.345597 0.345599 0.35657 0.345597 0.356568 0.35657 0.367889 0.324652 0.334958 0.33496 0.345593 0.334958 0.345591 0.345593 0.356563 0.33496 0.345593 0.345595 0.356566 0.345593 0.356563 0.356566 0.367884 0.345591 0.356561 0.356563 0.367882 0.356561 0.367879 0.367882 0.37956 0.356563 0.367882 0.367884 0.379562 0.367882 0.37956 0.379562 0.391611 0.345595 0.356566 0.356568 0.367886 0.356566 0.367884 0.367886 0.379564 0.356568 0.367886 0.367889 0.379566 0.367886 0.379564 0.379566 0.391615 0.367884 0.379562 0.379564 0.391613 0.379562 0.391611 0.391613 0.404044 0.379564 0.391613 0.391615 0.404046 0.391613 0.404044 0.404046 0.416872 0.324661 0.334966 0.334968 0.345601 0.334966 0.345599 0.345601 0.356572 0.334968 0.345601 0.345603 0.356573 0.345601 0.356572 0.356573 0.367892 0.345599 0.35657 0.356572 0.36789 0.35657 0.367889 0.36789 0.379568 0.356572 0.36789 0.367892 0.37957 0.36789 0.379568 0.37957 0.391619 0.345603 0.356573 0.356575 0.367894 0.356573 0.367892 0.367894 0.379572 0.356575 0.367894 0.367895 0.379573 0.367894 0.379572 0.379573 0.391622 0.367892 0.37957 0.379572 0.391621 0.37957 0.391619 0.391621 0.404052 0.379572 0.391621 0.391622 0.404054 0.391621 0.404052 0.404054 0.416879 0.367889 0.379566 0.379568 0.391617 0.379566 0.391615 0.391617 0.404048 0.379568 0.391617 0.391619 0.40405 0.391617 0.404048 0.40405 0.416876 0.391615 0.404046 0.404048 0.416874 0.404046 0.416872 0.416874 0.430107 0.404048 0.416874 0.416876 0.430109 0.416874 0.430107 0.430109 0.443762 0.391619 0.40405 0.404052 0.416878 0.40405 0.416876 0.416878 0.430111 0.404052 0.416878 0.416879 0.430112 0.416878 0.430111 0.430112 0.443765 0.416876 0.430109 0.430111 0.443764 0.430109 0.443762 0.443764 0.45785 0.430111 0.443764 0.443765 0.457852 0.443764 0.45785 0.457852 0.472385 0.286516 0.295612 0.295612 0.304996 0.295612 0.304995 0.304996 0.314678 0.295612 0.304996 0.304997 0.314679 0.304996 0.314678 0.314679 0.324668 0.304995 0.314677 0.314678 0.324667 0.314677 0.324666 0.324667 0.334973 0.314678 0.324667 0.324668 0.334974 0.324667 0.334973 0.334974 0.345608 0.304997 0.314679 0.314679 0.324669 0.314679 0.324668 0.324669 0.334975 0.314679 0.324669 0.324669 0.334975 0.324669 0.334975 0.334975 0.345609 0.324668 0.334974 0.334975 0.345608 0.334974 0.345608 0.345608 0.356579 0.334975 0.345608 0.345609 0.35658 0.345608 0.356579 0.35658 0.367899 0.324666 0.334972 0.334973 0.345607 0.334972 0.345606 0.345607 0.356577 0.334973 0.345607 0.345608 0.356578 0.345607 0.356577 0.356578 0.367898 0.345606 0.356576 0.356577 0.367896 0.356576 0.367895 0.367896 0.379575 0.356577 0.367896 0.367898 0.379576 0.367896 0.379575 0.379576 0.391625 0.345608 0.356578 0.356579 0.367898 0.356578 0.367898 0.367898 0.379577 0.356579 0.367898 0.367899 0.379578 0.367898 0.379577 0.379578 0.391627 0.367898 0.379576 0.379577 0.391626 0.379576 0.391625 0.391626 0.404057 0.379577 0.391626 0.391627 0.404058 0.391626 0.404057 0.404058 0.416885 0.324669 0.334975 0.334976 0.345609 0.334975 0.345609 0.345609 0.356581 0.334976 0.345609 0.34561 0.356581 0.345609 0.356581 0.356581 0.3679 0.345609 0.35658 0.356581 0.3679 0.35658 0.367899 0.3679 0.379578 0.356581 0.3679 0.3679 0.379579 0.3679 0.379578 0.379579 0.391628 0.34561 0.356581 0.356581 0.367901 0.356581 0.3679 0.367901 0.379579 0.356581 0.367901 0.367901 0.379579 0.367901 0.379579 0.379579 0.391629 0.3679 0.379579 0.379579 0.391629 0.379579 0.391628 0.391629 0.40406 0.379579 0.391629 0.391629 0.404061 0.391629 0.40406 0.404061 0.416887 0.367899 0.379578 0.379578 0.391628 0.379578 0.391627 0.391628 0.404059 0.379578 0.391628 0.391628 0.40406 0.391628 0.404059 0.40406 0.416886 0.391627 0.404058 0.404059 0.416886 0.404058 0.416885 0.416886 0.430119 0.404059 0.416886 0.416886 0.43012 0.416886 0.430119 0.43012 0.443773 0.391628 0.40406 0.40406 0.416887 0.40406 0.416886 0.416887 0.43012 0.40406 0.416887 0.416887 0.430121 0.416887 0.43012 0.430121 0.443774 0.416886 0.43012 0.43012 0.443774 0.43012 0.443773 0.443774 0.457861 0.43012 0.443774 0.443774 0.457861 0.443774 0.457861 0.457861 0.472395 0.367895 0.379573 0.379575 0.391624 0.379573 0.391622 0.391624 0.404055 0.379575 0.391624 0.391625 0.404056 0.391624 0.404055 0.404056 0.416882 0.391622 0.404054 0.404055 0.416881 0.404054 0.416879 0.416881 0.430114 0.404055 0.416881 0.416882 0.430115 0.416881 0.430114 0.430115 0.443769 0.391625 0.404056 0.404057 0.416884 0.404056 0.416882 0.416884 0.430117 0.404057 0.416884 0.416885 0.430118 0.416884 0.430117 0.430118 0.443771 0.416882 0.430115 0.430117 0.44377 0.430115 0.443769 0.44377 0.457857 0.430117 0.44377 0.443771 0.457858 0.44377 0.457857 0.457858 0.472392 0.416879 0.430112 0.430114 0.443767 0.430112 0.443765 0.443767 0.457853 0.430114 0.443767 0.443769 0.457855 0.443767 0.457853 0.457855 0.472389 0.443765 0.457852 0.457853 0.472387 0.457852 0.472385 0.472387 0.487382 0.457853 0.472387 0.472389 0.487384 0.472387 0.487382 0.487384 0.502854 0.443769 0.457855 0.457857 0.47239 0.457855 0.472389 0.47239 0.487385 0.457857 0.47239 0.472392 0.487387 0.47239 0.487385 0.487387 0.502858 0.472389 0.487384 0.487385 0.502856 0.487384 0.502854 0.502856 0.518818 0.487385 0.502856 0.502858 0.51882 0.502856 0.518818 0.51882 0.535288 0.416885 0.430118 0.430119 0.443772 0.430118 0.443771 0.443772 0.457859 0.430119 0.443772 0.443773 0.45786 0.443772 0.457859 0.45786 0.472394 0.443771 0.457858 0.457859 0.472393 0.457858 0.472392 0.472393 0.487388 0.457859 0.472393 0.472394 0.487389 0.472393 0.487388 0.487389 0.50286 0.443773 0.45786 0.457861 0.472395 0.45786 0.472394 0.472395 0.48739 0.457861 0.472395 0.472395 0.487391 0.472395 0.48739 0.487391 0.502862 0.472394 0.487389 0.48739 0.502861 0.487389 0.50286 0.502861 0.518823 0.48739 0.502861 0.502862 0.518824 0.502861 0.518823 0.518824 0.535293 0.472392 0.487387 0.487388 0.502859 0.487387 0.502858 0.502859 0.518821 0.487388 0.502859 0.50286 0.518822 0.502859 0.518821 0.518822 0.535291 0.502858 0.51882 0.518821 0.53529 0.51882 0.535288 0.53529 0.552281 0.518821 0.53529 0.535291 0.552283 0.53529 0.552281 0.552283 0.569813 0.50286 0.518822 0.518823 0.535292 0.518822 0.535291 0.535292 0.552284 0.518823 0.535292 0.535293 0.552285 0.535292 0.552284 0.552285 0.569816 0.535291 0.552283 0.552284 0.569815 0.552283 0.569813 0.569815 0.587902 0.552284 0.569815 0.569816 0.587903 0.569815 0.587902 0.587903 0.606565 0.22313 0.230215 0.230213 0.237522 0.230215 0.237524 0.237522 0.245064 0.230213 0.237522 0.237521 0.245062 0.237522 0.245064 0.245062 0.252843 0.237524 0.245065 0.245064 0.252844 0.245065 0.252846 0.252844 0.260872 0.245064 0.252844 0.252843 0.260871 0.252844 0.260872 0.260871 0.269153 0.237521 0.245062 0.245061 0.252841 0.245062 0.252843 0.252841 0.260869 0.245061 0.252841 0.25284 0.260867 0.252841 0.260869 0.260867 0.26915 0.252843 0.260871 0.260869 0.269152 0.260871 0.269153 0.269152 0.277697 0.260869 0.269152 0.26915 0.277695 0.269152 0.277697 0.277695 0.286512 0.252846 0.260873 0.260872 0.269154 0.260873 0.269155 0.269154 0.277699 0.260872 0.269154 0.269153 0.277698 0.269154 0.277699 0.277698 0.286515 0.269155 0.2777 0.277699 0.286516 0.2777 0.286516 0.286516 0.295612 0.277699 0.286516 0.286515 0.295611 0.286516 0.295612 0.295611 0.304995 0.269153 0.277698 0.277697 0.286513 0.277698 0.286515 0.286513 0.29561 0.277697 0.286513 0.286512 0.295608 0.286513 0.29561 0.295608 0.304993 0.286515 0.295611 0.29561 0.304994 0.295611 0.304995 0.304994 0.314677 0.29561 0.304994 0.304993 0.314676 0.304994 0.314677 0.314676 0.324666 0.25284 0.260867 0.260866 0.269148 0.260867 0.26915 0.269148 0.277694 0.260866 0.269148 0.269146 0.277692 0.269148 0.277694 0.277692 0.286509 0.26915 0.277695 0.277694 0.28651 0.277695 0.286512 0.28651 0.295607 0.277694 0.28651 0.286509 0.295605 0.28651 0.295607 0.295605 0.30499 0.269146 0.277692 0.27769 0.286507 0.277692 0.286509 0.286507 0.295604 0.27769 0.286507 0.286505 0.295602 0.286507 0.295604 0.295602 0.304987 0.286509 0.295605 0.295604 0.304989 0.295605 0.30499 0.304989 0.314672 0.295604 0.304989 0.304987 0.31467 0.304989 0.314672 0.31467 0.324661 0.