# vtk DataFile Version 3.0
#This file was generated by the deal.II library on 2020/3/18 at 14:23:43
ASCII
DATASET UNSTRUCTURED_GRID

POINTS 4096 double
-1 -1 0
-0.9375 -1 0
-1 -0.9375 0
-0.9375 -0.9375 0
-0.9375 -1 0
-0.875 -1 0
-0.9375 -0.9375 0
-0.875 -0.9375 0
-1 -0.9375 0
-0.9375 -0.9375 0
-1 -0.875 0
-0.9375 -0.875 0
-0.9375 -0.9375 0
-0.875 -0.9375 0
-0.9375 -0.875 0
-0.875 -0.875 0
-0.875 -1 0
-0.8125 -1 0
-0.875 -0.9375 0
-0.8125 -0.9375 0
-0.8125 -1 0
-0.75 -1 0
-0.8125 -0.9375 0
-0.75 -0.9375 0
-0.875 -0.9375 0
-0.8125 -0.9375 0
-0.875 -0.875 0
-0.8125 -0.875 0
-0.8125 -0.9375 0
-0.75 -0.9375 0
-0.8125 -0.875 0
-0.75 -0.875 0
-1 -0.875 0
-0.9375 -0.875 0
-1 -0.8125 0
-0.9375 -0.8125 0
-0.9375 -0.875 0
-0.875 -0.875 0
-0.9375 -0.8125 0
-0.875 -0.8125 0
-1 -0.8125 0
-0.9375 -0.8125 0
-1 -0.75 0
-0.9375 -0.75 0
-0.9375 -0.8125 0
-0.875 -0.8125 0
-0.9375 -0.75 0
-0.875 -0.75 0
-0.875 -0.875 0
-0.8125 -0.875 0
-0.875 -0.8125 0
-0.8125 -0.8125 0
-0.8125 -0.875 0
-0.75 -0.875 0
-0.8125 -0.8125 0
-0.75 -0.8125 0
-0.875 -0.8125 0
-0.8125 -0.8125 0
-0.875 -0.75 0
-0.8125 -0.75 0
-0.8125 -0.8125 0
-0.75 -0.8125 0
-0.8125 -0.75 0
-0.75 -0.75 0
-0.75 -1 0
-0.6875 -1 0
-0.75 -0.9375 0
-0.6875 -0.9375 0
-0.6875 -1 0
-0.625 -1 0
-0.6875 -0.9375 0
-0.625 -0.9375 0
-0.75 -0.9375 0
-0.6875 -0.9375 0
-0.75 -0.875 0
-0.6875 -0.875 0
-0.6875 -0.9375 0
-0.625 -0.9375 0
-0.6875 -0.875 0
-0.625 -0.875 0
-0.625 -1 0
-0.5625 -1 0
-0.625 -0.9375 0
-0.5625 -0.9375 0
-0.5625 -1 0
-0.5 -1 0
-0.5625 -0.9375 0
-0.5 -0.9375 0
-0.625 -0.9375 0
-0.5625 -0.9375 0
-0.625 -0.875 0
-0.5625 -0.875 0
-0.5625 -0.9375 0
-0.5 -0.9375 0
-0.5625 -0.875 0
-0.5 -0.875 0
-0.75 -0.875 0
-0.6875 -0.875 0
-0.75 -0.8125 0
-0.6875 -0.8125 0
-0.6875 -0.875 0
-0.625 -0.875 0
-0.6875 -0.8125 0
-0.625 -0.8125 0
-0.75 -0.8125 0
-0.6875 -0.8125 0
-0.75 -0.75 0
-0.6875 -0.75 0
-0.6875 -0.8125 0
-0.625 -0.8125 0
-0.6875 -0.75 0
-0.625 -0.75 0
-0.625 -0.875 0
-0.5625 -0.875 0
-0.625 -0.8125 0
-0.5625 -0.8125 0
-0.5625 -0.875 0
-0.5 -0.875 0
-0.5625 -0.8125 0
-0.5 -0.8125 0
-0.625 -0.8125 0
-0.5625 -0.8125 0
-0.625 -0.75 0
-0.5625 -0.75 0
-0.5625 -0.8125 0
-0.5 -0.8125 0
-0.5625 -0.75 0
-0.5 -0.75 0
-1 -0.75 0
-0.9375 -0.75 0
-1 -0.6875 0
-0.9375 -0.6875 0
-0.9375 -0.75 0
-0.875 -0.75 0
-0.9375 -0.6875 0
-0.875 -0.6875 0
-1 -0.6875 0
-0.9375 -0.6875 0
-1 -0.625 0
-0.9375 -0.625 0
-0.9375 -0.6875 0
-0.875 -0.6875 0
-0.9375 -0.625 0
-0.875 -0.625 0
-0.875 -0.75 0
-0.8125 -0.75 0
-0.875 -0.6875 0
-0.8125 -0.6875 0
-0.8125 -0.75 0
-0.75 -0.75 0
-0.8125 -0.6875 0
-0.75 -0.6875 0
-0.875 -0.6875 0
-0.8125 -0.6875 0
-0.875 -0.625 0
-0.8125 -0.625 0
-0.8125 -0.6875 0
-0.75 -0.6875 0
-0.8125 -0.625 0
-0.75 -0.625 0
-1 -0.625 0
-0.9375 -0.625 0
-1 -0.5625 0
-0.9375 -0.5625 0
-0.9375 -0.625 0
-0.875 -0.625 0
-0.9375 -0.5625 0
-0.875 -0.5625 0
-1 -0.5625 0
-0.9375 -0.5625 0
-1 -0.5 0
-0.9375 -0.5 0
-0.9375 -0.5625 0
-0.875 -0.5625 0
-0.9375 -0.5 0
-0.875 -0.5 0
-0.875 -0.625 0
-0.8125 -0.625 0
-0.875 -0.5625 0
-0.8125 -0.5625 0
-0.8125 -0.625 0
-0.75 -0.625 0
-0.8125 -0.5625 0
-0.75 -0.5625 0
-0.875 -0.5625 0
-0.8125 -0.5625 0
-0.875 -0.5 0
-0.8125 -0.5 0
-0.8125 -0.5625 0
-0.75 -0.5625 0
-0.8125 -0.5 0
-0.75 -0.5 0
-0.75 -0.75 0
-0.6875 -0.75 0
-0.75 -0.6875 0
-0.6875 -0.6875 0
-0.6875 -0.75 0
-0.625 -0.75 0
-0.6875 -0.6875 0
-0.625 -0.6875 0
-0.75 -0.6875 0
-0.6875 -0.6875 0
-0.75 -0.625 0
-0.6875 -0.625 0
-0.6875 -0.6875 0
-0.625 -0.6875 0
-0.6875 -0.625 0
-0.625 -0.625 0
-0.625 -0.75 0
-0.5625 -0.75 0
-0.625 -0.6875 0
-0.5625 -0.6875 0
-0.5625 -0.75 0
-0.5 -0.75 0
-0.5625 -0.6875 0
-0.5 -0.6875 0
-0.625 -0.6875 0
-0.5625 -0.6875 0
-0.625 -0.625 0
-0.5625 -0.625 0
-0.5625 -0.6875 0
-0.5 -0.6875 0
-0.5625 -0.625 0
-0.5 -0.625 0
-0.75 -0.625 0
-0.6875 -0.625 0
-0.75 -0.5625 0
-0.6875 -0.5625 0
-0.6875 -0.625 0
-0.625 -0.625 0
-0.6875 -0.5625 0
-0.625 -0.5625 0
-0.75 -0.5625 0
-0.6875 -0.5625 0
-0.75 -0.5 0
-0.6875 -0.5 0
-0.6875 -0.5625 0
-0.625 -0.5625 0
-0.6875 -0.5 0
-0.625 -0.5 0
-0.625 -0.625 0
-0.5625 -0.625 0
-0.625 -0.5625 0
-0.5625 -0.5625 0
-0.5625 -0.625 0
-0.5 -0.625 0
-0.5625 -0.5625 0
-0.5 -0.5625 0
-0.625 -0.5625 0
-0.5625 -0.5625 0
-0.625 -0.5 0
-0.5625 -0.5 0
-0.5625 -0.5625 0
-0.5 -0.5625 0
-0.5625 -0.5 0
-0.5 -0.5 0
-0.5 -1 0
-0.4375 -1 0
-0.5 -0.9375 0
-0.4375 -0.9375 0
-0.4375 -1 0
-0.375 -1 0
-0.4375 -0.9375 0
-0.375 -0.9375 0
-0.5 -0.9375 0
-0.4375 -0.9375 0
-0.5 -0.875 0
-0.4375 -0.875 0
-0.4375 -0.9375 0
-0.375 -0.9375 0
-0.4375 -0.875 0
-0.375 -0.875 0
-0.375 -1 0
-0.3125 -1 0
-0.375 -0.9375 0
-0.3125 -0.9375 0
-0.3125 -1 0
-0.25 -1 0
-0.3125 -0.9375 0
-0.25 -0.9375 0
-0.375 -0.9375 0
-0.3125 -0.9375 0
-0.375 -0.875 0
-0.3125 -0.875 0
-0.3125 -0.9375 0
-0.25 -0.9375 0
-0.3125 -0.875 0
-0.25 -0.875 0
-0.5 -0.875 0
-0.4375 -0.875 0
-0.5 -0.8125 0
-0.4375 -0.8125 0
-0.4375 -0.875 0
-0.375 -0.875 0
-0.4375 -0.8125 0
-0.375 -0.8125 0
-0.5 -0.8125 0
-0.4375 -0.8125 0
-0.5 -0.75 0
-0.4375 -0.75 0
-0.4375 -0.8125 0
-0.375 -0.8125 0
-0.4375 -0.75 0
-0.375 -0.75 0
-0.375 -0.875 0
-0.3125 -0.875 0
-0.375 -0.8125 0
-0.3125 -0.8125 0
-0.3125 -0.875 0
-0.25 -0.875 0
-0.3125 -0.8125 0
-0.25 -0.8125 0
-0.375 -0.8125 0
-0.3125 -0.8125 0
-0.375 -0.75 0
-0.3125 -0.75 0
-0.3125 -0.8125 0
-0.25 -0.8125 0
-0.3125 -0.75 0
-0.25 -0.75 0
-0.25 -1 0
-0.1875 -1 0
-0.25 -0.9375 0
-0.1875 -0.9375 0
-0.1875 -1 0
-0.125 -1 0
-0.1875 -0.9375 0
-0.125 -0.9375 0
-0.25 -0.9375 0
-0.1875 -0.9375 0
-0.25 -0.875 0
-0.1875 -0.875 0
-0.1875 -0.9375 0
-0.125 -0.9375 0
-0.1875 -0.875 0
-0.125 -0.875 0
-0.125 -1 0
-0.0625 -1 0
-0.125 -0.9375 0
-0.0625 -0.9375 0
-0.0625 -1 0
0 -1 0
-0.0625 -0.9375 0
0 -0.9375 0
-0.125 -0.9375 0
-0.0625 -0.9375 0
-0.125 -0.875 0
-0.0625 -0.875 0
-0.0625 -0.9375 0
0 -0.9375 0
-0.0625 -0.875 0
0 -0.875 0
-0.25 -0.875 0
-0.1875 -0.875 0
-0.25 -0.8125 0
-0.1875 -0.8125 0
-0.1875 -0.875 0
-0.125 -0.875 0
-0.1875 -0.8125 0
-0.125 -0.8125 0
-0.25 -0.8125 0
-0.1875 -0.8125 0
-0.25 -0.75 0
-0.1875 -0.75 0
-0.1875 -0.8125 0
-0.125 -0.8125 0
-0.1875 -0.75 0
-0.125 -0.75 0
-0.125 -0.875 0
-0.0625 -0.875 0
-0.125 -0.8125 0
-0.0625 -0.8125 0
-0.0625 -0.875 0
0 -0.875 0
-0.0625 -0.8125 0
0 -0.8125 0
-0.125 -0.8125 0
-0.0625 -0.8125 0
-0.125 -0.75 0
-0.0625 -0.75 0
-0.0625 -0.8125 0
0 -0.8125 0
-0.0625 -0.75 0
0 -0.75 0
-0.5 -0.75 0
-0.4375 -0.75 0
-0.5 -0.6875 0
-0.4375 -0.6875 0
-0.4375 -0.75 0
-0.375 -0.75 0
-0.4375 -0.6875 0
-0.375 -0.6875 0
-0.5 -0.6875 0
-0.4375 -0.6875 0
-0.5 -0.625 0
-0.4375 -0.625 0
-0.4375 -0.6875 0
-0.375 -0.6875 0
-0.4375 -0.625 0
-0.375 -0.625 0
-0.375 -0.75 0
-0.3125 -0.75 0
-0.375 -0.6875 0
-0.3125 -0.6875 0
-0.3125 -0.75 0
-0.25 -0.75 0
-0.3125 -0.6875 0
-0.25 -0.6875 0
-0.375 -0.6875 0
-0.3125 -0.6875 0
-0.375 -0.625 0
-0.3125 -0.625 0
-0.3125 -0.6875 0
-0.25 -0.6875 0
-0.3125 -0.625 0
-0.25 -0.625 0
-0.5 -0.625 0
-0.4375 -0.625 0
-0.5 -0.5625 0
-0.4375 -0.5625 0
-0.4375 -0.625 0
-0.375 -0.625 0
-0.4375 -0.5625 0
-0.375 -0.5625 0
-0.5 -0.5625 0
-0.4375 -0.5625 0
-0.5 -0.5 0
-0.4375 -0.5 0
-0.4375 -0.5625 0
-0.375 -0.5625 0
-0.4375 -0.5 0
-0.375 -0.5 0
-0.375 -0.625 0
-0.3125 -0.625 0
-0.375 -0.5625 0
-0.3125 -0.5625 0
-0.3125 -0.625 0
-0.25 -0.625 0
-0.3125 -0.5625 0
-0.25 -0.5625 0
-0.375 -0.5625 0
-0.3125 -0.5625 0
-0.375 -0.5 0
-0.3125 -0.5 0
-0.3125 -0.5625 0
-0.25 -0.5625 0
-0.3125 -0.5 0
-0.25 -0.5 0
-0.25 -0.75 0
-0.1875 -0.75 0
-0.25 -0.6875 0
-0.1875 -0.6875 0
-0.1875 -0.75 0
-0.125 -0.75 0
-0.1875 -0.6875 0
-0.125 -0.6875 0
-0.25 -0.6875 0
-0.1875 -0.6875 0
-0.25 -0.625 0
-0.1875 -0.625 0
-0.1875 -0.6875 0
-0.125 -0.6875 0
-0.1875 -0.625 0
-0.125 -0.625 0
-0.125 -0.75 0
-0.0625 -0.75 0
-0.125 -0.6875 0
-0.0625 -0.6875 0
-0.0625 -0.75 0
0 -0.75 0
-0.0625 -0.6875 0
0 -0.6875 0
-0.125 -0.6875 0
-0.0625 -0.6875 0
-0.125 -0.625 0
-0.0625 -0.625 0
-0.0625 -0.6875 0
0 -0.6875 0
-0.0625 -0.625 0
0 -0.625 0
-0.25 -0.625 0
-0.1875 -0.625 0
-0.25 -0.5625 0
-0.1875 -0.5625 0
-0.1875 -0.625 0
-0.125 -0.625 0
-0.1875 -0.5625 0
-0.125 -0.5625 0
-0.25 -0.5625 0
-0.1875 -0.5625 0
-0.25 -0.5 0
-0.1875 -0.5 0
-0.1875 -0.5625 0
-0.125 -0.5625 0
-0.1875 -0.5 0
-0.125 -0.5 0
-0.125 -0.625 0
-0.0625 -0.625 0
-0.125 -0.5625 0
-0.0625 -0.5625 0
-0.0625 -0.625 0
0 -0.625 0
-0.0625 -0.5625 0
0 -0.5625 0
-0.125 -0.5625 0
-0.0625 -0.5625 0
-0.125 -0.5 0
-0.0625 -0.5 0
-0.0625 -0.5625 0
0 -0.5625 0
-0.0625 -0.5 0
0 -0.5 0
-1 -0.5 0
-0.9375 -0.5 0
-1 -0.4375 0
-0.9375 -0.4375 0
-0.9375 -0.5 0
-0.875 -0.5 0
-0.9375 -0.4375 0
-0.875 -0.4375 0
-1 -0.4375 0
-0.9375 -0.4375 0
-1 -0.375 0
-0.9375 -0.375 0
-0.9375 -0.4375 0
-0.875 -0.4375 0
-0.9375 -0.375 0
-0.875 -0.375 0
-0.875 -0.5 0
-0.8125 -0.5 0
-0.875 -0.4375 0
-0.8125 -0.4375 0
-0.8125 -0.5 0
-0.75 -0.5 0
-0.8125 -0.4375 0
-0.75 -0.4375 0
-0.875 -0.4375 0
-0.8125 -0.4375 0
-0.875 -0.375 0
-0.8125 -0.375 0
-0.8125 -0.4375 0
-0.75 -0.4375 0
-0.8125 -0.375 0
-0.75 -0.375 0
-1 -0.375 0
-0.9375 -0.375 0
-1 -0.3125 0
-0.9375 -0.3125 0
-0.9375 -0.375 0
-0.875 -0.375 0
-0.9375 -0.3125 0
-0.875 -0.3125 0
-1 -0.3125 0
-0.9375 -0.3125 0
-1 -0.25 0
-0.9375 -0.25 0
-0.9375 -0.3125 0
-0.875 -0.3125 0
-0.9375 -0.25 0
-0.875 -0.25 0
-0.875 -0.375 0
-0.8125 -0.375 0
-0.875 -0.3125 0
-0.8125 -0.3125 0
-0.8125 -0.375 0
-0.75 -0.375 0
-0.8125 -0.3125 0
-0.75 -0.3125 0
-0.875 -0.3125 0
-0.8125 -0.3125 0
-0.875 -0.25 0
-0.8125 -0.25 0
-0.8125 -0.3125 0
-0.75 -0.3125 0
-0.8125 -0.25 0
-0.75 -0.25 0
-0.75 -0.5 0
-0.6875 -0.5 0
-0.75 -0.4375 0
-0.6875 -0.4375 0
-0.6875 -0.5 0
-0.625 -0.5 0
-0.6875 -0.4375 0
-0.625 -0.4375 0
-0.75 -0.4375 0
-0.6875 -0.4375 0
-0.75 -0.375 0
-0.6875 -0.375 0
-0.6875 -0.4375 0
-0.625 -0.4375 0
-0.6875 -0.375 0
-0.625 -0.375 0
-0.625 -0.5 0
-0.5625 -0.5 0
-0.625 -0.4375 0
-0.5625 -0.4375 0
-0.5625 -0.5 0
-0.5 -0.5 0
-0.5625 -0.4375 0
-0.5 -0.4375 0
-0.625 -0.4375 0
-0.5625 -0.4375 0
-0.625 -0.375 0
-0.5625 -0.375 0
-0.5625 -0.4375 0
-0.5 -0.4375 0
-0.5625 -0.375 0
-0.5 -0.375 0
-0.75 -0.375 0
-0.6875 -0.375 0
-0.75 -0.3125 0
-0.6875 -0.3125 0
-0.6875 -0.375 0
-0.625 -0.375 0
-0.6875 -0.3125 0
[...]
POINT_DATA 4096
SCALARS solution double 1
LOOKUP_TABLE default
0.135335 0.144064 0.144064 0.153357 0.144064 0.153355 0.153357 0.163249 0.144064 0.153357 0.153355 0.163249 0.153357 0.163249 0.163249 0.173781 0.153355 0.163246 0.163249 0.173779 0.163246 0.173774 0.173779 0.184988 0.163249 0.173779 0.173781 0.184992 0.173779 0.184988 0.184992 0.196925 0.153355 0.163249 0.163246 0.173779 0.163249 0.173781 0.173779 0.184992 0.163246 0.173779 0.173774 0.184988 0.173779 0.184992 0.184988 0.196925 0.173781 0.184992 0.184992 0.196927 0.184992 0.196925 0.196927 0.209631 0.184992 0.196927 0.196925 0.209631 0.196927 0.209631 0.209631 0.223156 0.173774 0.184981 0.184988 0.19692 0.184981 0.196912 0.19692 0.209621 0.184988 0.19692 0.196925 0.209628 0.19692 0.209621 0.209628 0.223149 0.196912 0.209611 0.209621 0.223141 0.209611 0.22313 0.223141 0.237533 0.209621 0.223141 0.223149 0.237543 0.223141 0.237533 0.237543 0.252864 0.196925 0.209628 0.209631 0.223154 0.209628 0.223149 0.223154 0.237549 0.209631 0.223154 0.223156 0.237552 0.223154 0.237549 0.237552 0.252876 0.223149 0.237543 0.237549 0.252871 0.237543 0.252864 0.252871 0.269182 0.237549 0.252871 0.252876 0.269188 0.252871 0.269182 0.269188 0.286551 0.173774 0.184988 0.184981 0.19692 0.184988 0.196925 0.19692 0.209628 0.184981 0.19692 0.196912 0.209621 0.19692 0.209628 0.209621 0.223149 0.196925 0.209631 0.209628 0.223154 0.209631 0.223156 0.223154 0.237552 0.209628 0.223154 0.223149 0.237549 0.223154 0.237552 0.237549 0.252876 0.196912 0.209621 0.209611 0.223141 0.209621 0.223149 0.223141 0.237543 0.209611 0.223141 0.22313 0.237533 0.223141 0.237543 0.237533 0.252864 0.223149 0.237549 0.237543 0.252871 0.237549 0.252876 0.252871 0.269188 0.237543 0.252871 0.252864 0.269182 0.252871 0.269188 0.269182 0.286551 0.223156 0.237552 0.237552 0.252878 0.237552 0.252876 0.252878 0.269191 0.237552 0.252878 0.252876 0.269191 0.252878 0.269191 0.269191 0.286557 0.252876 0.269188 0.269191 0.286555 0.269188 0.286551 0.286555 0.305039 0.269191 0.286555 0.286557 0.305042 0.286555 0.305039 0.305042 0.324719 0.252876 0.269191 0.269188 0.286555 0.269191 0.286557 0.286555 0.305042 0.269188 0.286555 0.286551 0.305039 0.286555 0.305042 0.305039 0.324719 0.286557 0.305042 0.305042 0.32472 0.305042 0.324719 0.32472 0.345667 0.305042 0.32472 0.324719 0.345667 0.32472 0.345667 0.345667 0.367964 0.22313 0.237521 0.237533 0.252853 0.237521 0.25284 0.252853 0.269161 0.237533 0.252853 0.252864 0.269173 0.252853 0.269161 0.269173 0.286534 0.25284 0.269146 0.269161 0.286521 0.269146 0.286505 0.286521 0.305 0.269161 0.286521 0.286534 0.305014 0.286521 0.305 0.305014 0.324685 0.252864 0.269173 0.269182 0.286544 0.269173 0.286534 0.286544 0.305025 0.269182 0.286544 0.286551 0.305034 0.286544 0.305025 0.305034 0.324708 0.286534 0.305014 0.305025 0.324698 0.305014 0.324685 0.324698 0.345639 0.305025 0.324698 0.324708 0.34565 0.324698 0.345639 0.34565 0.367942 0.286505 0.304983 0.305 0.32467 0.304983 0.324652 0.32467 0.345609 0.305 0.32467 0.324685 0.345625 0.32467 0.345609 0.345625 0.367916 0.324652 0.345591 0.345609 0.367899 0.345591 0.367879 0.367899 0.391626 0.345609 0.367899 0.367916 0.391643 0.367899 0.391626 0.391643 0.416901 0.324685 0.345625 0.345639 0.36793 0.345625 0.367916 0.36793 0.391659 0.345639 0.36793 0.367942 0.391672 0.36793 0.391659 0.391672 0.416932 0.367916 0.391643 0.391659 0.416918 0.391643 0.416901 0.416918 0.443805 0.391659 0.416918 0.416932 0.44382 0.416918 0.443805 0.44382 0.472441 0.286551 0.305034 0.305039 0.324715 0.305034 0.324708 0.324715 0.345658 0.305039 0.324715 0.324719 0.345664 0.324715 0.345658 0.345664 0.367959 0.324708 0.34565 0.345658 0.367952 0.34565 0.367942 0.367952 0.391683 0.345658 0.367952 0.367959 0.391691 0.367952 0.391683 0.391691 0.416953 0.324719 0.345664 0.345667 0.367963 0.345664 0.367959 0.367963 0.391696 0.345667 0.367963 0.367964 0.391699 0.367963 0.391696 0.391699 0.416963 0.367959 0.391691 0.391696 0.416959 0.391691 0.416953 0.416959 0.443851 0.391696 0.416959 0.416963 0.443856 0.416959 0.443851 0.443856 0.472482 0.367942 0.391672 0.391683 0.416943 0.391672 0.416932 0.416943 0.443832 0.391683 0.416943 0.416953 0.443843 0.416943 0.443832 0.443843 0.472467 0.416932 0.44382 0.443832 0.472455 0.44382 0.472441 0.472455 0.502923 0.443832 0.472455 0.472467 0.502936 0.472455 0.502923 0.502936 0.535369 0.416953 0.443843 0.443851 0.472476 0.443843 0.472467 0.472476 0.502946 0.443851 0.472476 0.472482 0.502954 0.472476 0.502946 0.502954 0.535389 0.472467 0.502936 0.502946 0.53538 0.502936 0.535369 0.53538 0.569905 0.502946 0.53538 0.535389 0.569916 0.53538 0.569905 0.569916 0.606668 0.22313 0.237533 0.237521 0.252853 0.237533 0.252864 0.252853 0.269173 0.237521 0.252853 0.25284 0.269161 0.252853 0.269173 0.269161 0.286534 0.252864 0.269182 0.269173 0.286544 0.269182 0.286551 0.286544 0.305034 0.269173 0.286544 0.286534 0.305025 0.286544 0.305034 0.305025 0.324708 0.25284 0.269161 0.269146 0.286521 0.269161 0.286534 0.286521 0.305014 0.269146 0.286521 0.286505 0.305 0.286521 0.305014 0.305 0.324685 0.286534 0.305025 0.305014 0.324698 0.305025 0.324708 0.324698 0.34565 0.305014 0.324698 0.324685 0.345639 0.324698 0.34565 0.345639 0.367942 0.286551 0.305039 0.305034 0.324715 0.305039 0.324719 0.324715 0.345664 0.305034 0.324715 0.324708 0.345658 0.324715 0.345664 0.345658 0.367959 0.324719 0.345667 0.345664 0.367963 0.345667 0.367964 0.367963 0.391699 0.345664 0.367963 0.367959 0.391696 0.367963 0.391699 0.391696 0.416963 0.324708 0.345658 0.34565 0.367952 0.345658 0.367959 0.367952 0.391691 0.34565 0.367952 0.367942 0.391683 0.367952 0.391691 0.391683 0.416953 0.367959 0.391696 0.391691 0.416959 0.391696 0.416963 0.416959 0.443856 0.391691 0.416959 0.416953 0.443851 0.416959 0.443856 0.443851 0.472482 0.286505 0.305 0.304983 0.32467 0.305 0.324685 0.32467 0.345625 0.304983 0.32467 0.324652 0.345609 0.32467 0.345625 0.345609 0.367916 0.324685 0.345639 0.345625 0.36793 0.345639 0.367942 0.36793 0.391672 0.345625 0.36793 0.367916 0.391659 0.36793 0.391672 0.391659 0.416932 0.324652 0.345609 0.345591 0.367899 0.345609 0.367916 0.367899 0.391643 0.345591 0.367899 0.367879 0.391626 0.367899 0.391643 0.391626 0.416901 0.367916 0.391659 0.391643 0.416918 0.391659 0.416932 0.416918 0.44382 0.391643 0.416918 0.416901 0.443805 0.416918 0.44382 0.443805 0.472441 0.367942 0.391683 0.391672 0.416943 0.391683 0.416953 0.416943 0.443843 0.391672 0.416943 0.416932 0.443832 0.416943 0.443843 0.443832 0.472467 0.416953 0.443851 0.443843 0.472476 0.443851 0.472482 0.472476 0.502954 0.443843 0.472476 0.472467 0.502946 0.472476 0.502954 0.502946 0.535389 0.416932 0.443832 0.44382 0.472455 0.443832 0.472467 0.472455 0.502936 0.44382 0.472455 0.472441 0.502923 0.472455 0.502936 0.502923 0.535369 0.472467 0.502946 0.502936 0.53538 0.502946 0.535389 0.53538 0.569916 0.502936 0.53538 0.535369 0.569905 0.53538 0.569916 0.569905 0.606668 0.367964 0.391699 0.391699 0.416965 0.391699 0.416963 0.416965 0.443859 0.391699 0.416965 0.416963 0.443859 0.416965 0.443859 0.443859 0.472487 0.416963 0.443856 0.443859 0.472486 0.443856 0.472482 0.472486 0.502959 0.443859 0.472486 0.472487 0.502961 0.472486 0.502959 0.502961 0.535399 0.416963 0.443859 0.443856 0.472486 0.443859 0.472487 0.472486 0.502961 0.443856 0.472486 0.472482 0.502959 0.472486 0.502961 0.502959 0.535399 0.472487 0.502961 0.502961 0.535401 0.502961 0.535399 0.535401 0.569931 0.502961 0.535401 0.535399 0.569931 0.535401 0.569931 0.569931 0.606688 0.472482 0.502954 0.502959 0.535396 0.502954 0.535389 0.535396 0.569923 0.502959 0.535396 0.535399 0.569928 0.535396 0.569923 0.569928 0.606683 0.535389 0.569916 0.569923 0.606677 0.569916 0.606668 0.606677 0.645799 0.569923 0.606677 0.606683 0.645807 0.606677 0.645799 0.645807 0.687453 0.535399 0.569928 0.569931 0.606687 0.569928 0.606683 0.606687 0.645812 0.569931 0.606687 0.606688 0.645815 0.606687 0.645812 0.645815 0.687464 0.606683 0.645807 0.645812 0.68746 0.645807 0.687453 0.68746 0.731792 0.645812 0.68746 0.687464 0.731797 0.68746 0.731792 0.731797 0.778988 0.472482 0.502959 0.502954 0.535396 0.502959 0.535399 0.535396 0.569928 0.502954 0.535396 0.535389 0.569923 0.535396 0.569928 0.569923 0.606683 0.535399 0.569931 0.569928 0.606687 0.569931 0.606688 0.606687 0.645815 0.569928 0.606687 0.606683 0.645812 0.606687 0.645815 0.645812 0.687464 0.535389 0.569923 0.569916 0.606677 0.569923 0.606683 0.606677 0.645807 0.569916 0.606677 0.606668 0.645799 0.606677 0.645807 0.645799 0.687453 0.606683 0.645812 0.645807 0.68746 0.645812 0.687464 0.68746 0.731797 0.645807 0.68746 0.687453 0.731792 0.68746 0.731797 0.731792 0.778988 0.606688 0.645815 0.645815 0.687465 0.645815 0.687464 0.687465 0.7318 0.645815 0.687465 0.687464 0.7318 0.687465 0.7318 0.7318 0.778994 0.687464 0.731797 0.7318 0.778992 0.731797 0.778988 0.778992 0.829227 0.7318 0.778992 0.778994 0.82923 0.778992 0.829227 0.82923 0.882704 0.687464 0.7318 0.731797 0.778992 0.7318 0.778994 0.778992 0.82923 0.731797 0.778992 0.778988 0.829227 0.778992 0.82923 0.829227 0.882704 0.778994 0.82923 0.82923 0.882706 0.82923 0.882704 0.882706 0.939629 0.82923 0.882706 0.882704 0.939629 0.882706 0.939629 0.939629 1.00022 0.367879 0.391606 0.391626 0.416883 0.391606 0.416862 0.416883 0.443768 0.391626 0.416883 0.416901 0.443788 0.416883 0.443768 0.443788 0.472408 0.416862 0.443747 0.443768 0.472388 0.443747 0.472367 0.472388 0.502853 0.443768 0.472388 0.472408 0.502873 0.472388 0.502853 0.502873 0.535303 0.416901 0.443788 0.443805 0.472426 0.443788 0.472408 0.472426 0.502892 0.443805 0.472426 0.472441 0.502908 0.472426 0.502892 0.502908 0.53534 0.472408 0.502873 0.502892 0.535323 0.502873 0.535303 0.535323 0.569844 0.502892 0.535323 0.53534 0.569862 0.535323 0.569844 0.569862 0.606611 0.472367 0.502832 0.502853 0.535283 0.502832 0.535261 0.535283 0.569804 0.502853 0.535283 0.535303 0.569825 0.535283 0.569804 0.569825 0.606572 0.535261 0.569783 0.569804 0.606552 0.569783 0.606531 0.606552 0.645669 0.569804 0.606552 0.606572 0.645689 0.606552 0.645669 0.645689 0.687329 0.535303 0.569825 0.569844 0.606592 0.569825 0.606572 0.606592 0.645709 0.569844 0.606592 0.606611 0.645728 0.606592 0.645709 0.645728 0.687368 0.606572 0.645689 0.645709 0.687349 0.645689 0.687329 0.687349 0.731673 0.645709 0.687349 0.687368 0.731693 0.687349 0.731673 0.731693 0.778875 0.472441 0.502908 0.502923 0.535355 0.502908 0.53534 0.535355 0.569879 0.502923 0.535355 0.535369 0.569893 0.535355 0.569879 0.569893 0.606643 0.53534 0.569862 0.569879 0.606628 0.569862 0.606611 0.606628 0.645746 0.569879 0.606628 0.606643 0.645762 0.606628 0.645746 0.645762 0.687404 0.535369 0.569893 0.569905 0.606656 0.569893 0.606643 0.606656 0.645777 0.569905 0.606656 0.606668 0.645789 0.606656 0.645777 0.645789 0.687433 0.606643 0.645762 0.645777 0.687419 0.645762 0.687404 0.687419 0.731746 0.645777 0.687419 0.687433 0.731761 0.687419 0.731746 0.731761 0.778946 0.606611 0.645728 0.645746 0.687387 0.645728 0.687368 0.687387 0.731712 0.645746 0.687387 0.687404 0.731729 0.687387 0.731712 0.731729 0.778913 0.687368 0.731693 0.731712 0.778895 0.731693 0.778875 0.778895 0.82912 0.731712 0.778895 0.778913 0.829139 0.778895 0.82912 0.829139 0.882602 0.687404 0.731729 0.731746 0.77893 0.731729 0.778913 0.77893 0.829157 0.731746 0.77893 0.778946 0.829174 0.77893 0.829157 0.829174 0.882639 0.778913 0.829139 0.829157 0.882621 0.829139 0.882602 0.882621 0.939533 0.829157 0.882621 0.882639 0.939552 0.882621 0.939533 0.939552 1.00013 0.606531 0.645649 0.645669 0.687309 0.645649 0.687289 0.687309 0.731634 0.645669 0.687309 0.687329 0.731654 0.687309 0.731634 0.731654 0.778836 0.687289 0.731616 0.731634 0.778818 0.731616 0.778801 0.778818 0.829044 0.731634 0.778818 0.778836 0.829062 0.778818 0.829044 0.829062 0.882525 0.687329 0.731654 0.731673 0.778856 0.731654 0.778836 0.778856 0.82908 0.731673 0.778856 0.778875 0.8291 0.778856 0.82908 0.8291 0.882563 0.778836 0.829062 0.82908 0.882544 0.829062 0.882525 0.882544 0.939454 0.82908 0.882544 0.882563 0.939473 0.882544 0.939454 0.939473 1.00005 0.778801 0.829029 0.829044 0.88251 0.829029 0.882497 0.88251 0.939423 0.829044 0.88251 0.882525 0.939437 0.88251 0.939423 0.939437 1.00002 0.882497 0.939413 0.939423 1.00001 0.939413 1 1.00001 1.06449 0.939423 1.00001 1.00002 1.0645 1.00001 1.06449 1.0645 1.13315 0.882525 0.939437 0.939454 1.00003 0.939437 1.00002 1.00003 1.06452 0.939454 1.00003 1.00005 1.06454 1.00003 1.06452 1.06454 1.13318 1.00002 1.0645 1.06452 1.13316 1.0645 1.13315 1.13316 1.20623 1.06452 1.13316 1.13318 1.20625 1.13316 1.20623 1.20625 1.28403 0.778875 0.8291 0.82912 0.882583 0.8291 0.882563 0.882583 0.939493 0.82912 0.882583 0.882602 0.939513 0.882583 0.939493 0.939513 1.00009 0.882563 0.939473 0.939493 1.00007 0.939473 1.00005 1.00007 1.06456 0.939493 1.00007 1.00009 1.06458 1.00007 1.06456 1.06458 1.13322 0.882602 0.939513 0.939533 1.00011 0.939513 1.00009 1.00011 1.0646 0.939533 1.00011 1.00013 1.06462 1.00011 1.0646 1.06462 1.13327 1.00009 1.06458 1.0646 1.13324 1.06458 1.13322 1.13324 1.20631 1.0646 1.13324 1.13327 1.20634 1.13324 1.20631 1.20634 1.28412 1.00005 1.06454 1.06456 1.1332 1.06454 1.13318 1.1332 1.20627 1.06456 1.1332 1.13322 1.20629 1.1332 1.20627 1.20629 1.28407 1.13318 1.20625 1.20627 1.28405 1.20625 1.28403 1.28405 1.36684 1.20627 1.28405 1.28407 1.36686 1.28405 1.36684 1.36686 1.45499 1.13322 1.20629 1.20631 1.28409 1.20629 1.28407 1.28409 1.36689 1.20631 1.28409 1.28412 1.36691 1.28409 1.36689 1.36691 1.45504 1.28407 1.36686 1.36689 1.45502 1.36686 1.45499 1.45502 1.54883 1.36689 1.45502 1.45504 1.54886 1.45502 1.54883 1.54886 1.64872 0.606668 0.645789 0.645799 0.687444 0.645789 0.687433 0.687444 0.731773 0.645799 0.687444 0.687453 0.731784 0.687444 0.731773 0.731784 0.778972 0.687433 0.731761 0.731773 0.77896 0.731761 0.778946 0.77896 0.829189 0.731773 0.77896 0.778972 0.829202 0.77896 0.829189 0.829202 0.882671 0.687453 0.731784 0.731792 0.778981 0.731784 0.778972 0.778981 0.829213 0.731792 0.778981 0.778988 0.829221 0.778981 0.829213 0.829221 0.882693 0.778972 0.829202 0.829213 0.882683 0.829202 0.882671 0.882683 0.9396 0.829213 0.882683 0.882693 0.939611 0.882683 0.9396 0.939611 1.0002 0.778946 0.829174 0.829189 0.882656 0.829174 0.882639 0.882656 0.93957 0.829189 0.882656 0.882671 0.939586 0.882656 0.93957 0.939586 1.00017 0.882639 0.939552 0.93957 1.00015 0.939552 1.00013 1.00015 1.06464 0.93957 1.00015 1.00017 1.06466 1.00015 1.06464 1.06466 1.13331 0.882671 0.939586 0.9396 1.00019 0.939586 1.00017 1.00019 1.06468 0.9396 1.00019 1.0002 1.06469 1.00019 1.06468 1.06469 1.13334 1.00017 1.06466 1.06468 1.13333 1.06466 1.13331 1.13333 1.2064 1.06468 1.13333 1.13334 1.20642 1.13333 1.2064 1.20642 1.28421 0.778988 0.829221 0.829227 0.8827 0.829221 0.882693 0.8827 0.93962 0.829227 0.8827 0.882704 0.939626 0.8827 0.93962 0.939626 1.00022 0.882693 0.939611 0.93962 1.00021 0.939611 1.0002 1.00021 1.0647 0.93962 1.00021 1.00022 1.06471 1.00021 1.0647 1.06471 1.13337 0.882704 0.939626 0.939629 1.00022 0.939626 1.00022 1.00022 1.06472 0.939629 1.00022 1.00022 1.06472 1.00022 1.06472 1.06472 1.13338 1.00022 1.06471 1.06472 1.13338 1.06471 1.13337 1.13338 1.20646 1.06472 1.13338 1.13338 1.20647 1.13338 1.20646 1.20647 1.28426 1.0002 1.06469 1.0647 1.13336 1.06469 1.13334 1.13336 1.20644 1.0647 1.13336 1.13337 1.20645 1.13336 1.20644 1.20645 1.28424 1.13334 1.20642 1.20644 1.28423 1.20642 1.28421 1.28423 1.36703 1.20644 1.28423 1.28424 1.36705 1.28423 1.36703 1.36705 1.45519 1.13337 1.20645 1.20646 1.28425 1.20645 1.28424 1.28425 1.36706 1.20646 1.28425 1.28426 1.36708 1.28425 1.36706 1.36708 1.45523 1.28424 1.36705 1.36706 1.45521 1.36705 1.45519 1.45521 1.54904 1.36706 1.45521 1.45523 1.54906 1.45521 1.54904 1.54906 1.64894 1.00013 1.06462 1.06464 1.13329 1.06462 1.13327 1.13329 1.20636 1.06464 1.13329 1.13331 1.20638 1.13329 1.20636 1.20638 1.28416 1.13327 1.20634 1.20636 1.28414 1.20634 1.28412 1.28414 1.36694 1.20636 1.28414 1.28416 1.36696 1.28414 1.36694 1.36696 1.4551 1.13331 1.20638 1.2064 1.28419 1.20638 1.28416 1.28419 1.36699 1.2064 1.28419 1.28421 1.36701 1.28419 1.36699 1.36701 1.45515 1.28416 1.36696 1.36699 1.45512 1.36696 1.4551 1.45512 1.54895 1.36699 1.45512 1.45515 1.54897 1.45512 1.54895 1.54897 1.64884 1.28412 1.36691 1.36694 1.45507 1.36691 1.45504 1.45507 1.54889 1.36694 1.45507 1.4551 1.54892 1.45507 1.54889 1.54892 1.64878 1.45504 1.54886 1.54889 1.64875 1.54886 1.64872 1.64875 1.75505 1.54889 1.64875 1.64878 1.75509 1.64875 1.75505 1.75509 1.86825 1.4551 1.54892 1.54895 1.64881 1.54892 1.64878 1.64881 1.75512 1.54895 1.64881 1.64884 1.75515 1.64881 1.75512 1.75515 1.86832 1.64878 1.75509 1.75512 1.86828 1.75509 1.86825 1.86828 1.98874 1.75512 1.86828 1.86832 1.98878 1.86828 1.98874 1.98878 2.117 1.28421 1.36701 1.36703 1.45517 1.36701 1.45515 1.45517 1.549 1.36703 1.45517 1.45519 1.54902 1.45517 1.549 1.54902 1.6489 1.45515 1.54897 1.549 1.64887 1.54897 1.64884 1.64887 1.75518 1.549 1.64887 1.6489 1.75521 1.64887 1.75518 1.75521 1.86838 1.45519 1.54902 1.54904 1.64892 1.54902 1.6489 1.64892 1.75524 1.54904 1.64892 1.64894 1.75526 1.64892 1.75524 1.75526 1.86844 1.6489 1.75521 1.75524 1.86841 1.75521 1.86838 1.86841 1.98888 1.75524 1.86841 1.86844 1.98891 1.86841 1.98888 1.98891 2.11715 1.64884 1.75515 1.75518 1.86835 1.75515 1.86832 1.86835 1.98881 1.75518 1.86835 1.86838 1.98885 1.86835 1.98881 1.98885 2.11708 1.86832 1.98878 1.98881 2.11704 1.98878 2.117 2.11704 2.25353 1.98881 2.11704 2.11708 2.25358 2.11704 2.25353 2.25358 2.39888 1.86838 1.98885 1.98888 2.11712 1.98885 2.11708 2.11712 2.25362 1.98888 2.11712 2.11715 2.25366 2.11712 2.25362 2.25366 2.39896 2.11708 2.25358 2.25362 2.39892 2.25358 2.39888 2.39892 2.55359 2.25362 2.39892 2.39896 2.55364 2.39892 2.55359 2.55364 2.71828 0.367879 0.391626 0.391606 0.416883 0.391626 0.416901 0.416883 0.443788 0.391606 0.416883 0.416862 0.443768 0.416883 0.443788 0.443768 0.472408 0.416901 0.443805 0.443788 0.472426 0.443805 0.472441 0.472426 0.502908 0.443788 0.472426 0.472408 0.502892 0.472426 0.502908 0.502892 0.53534 0.416862 0.443768 0.443747 0.472388 0.443768 0.472408 0.472388 0.502873 0.443747 0.472388 0.472367 0.502853 0.472388 0.502873 0.502853 0.535303 0.472408 0.502892 0.502873 0.535323 0.502892 0.53534 0.535323 0.569862 0.502873 0.535323 0.535303 0.569844 0.535323 0.569862 0.569844 0.606611 0.472441 0.502923 0.502908 0.535355 0.502923 0.535369 0.535355 0.569893 0.502908 0.535355 0.53534 0.569879 0.535355 0.569893 0.569879 0.606643 0.535369 0.569905 0.569893 0.606656 0.569905 0.606668 0.606656 0.645789 0.569893 0.606656 0.606643 0.645777 0.606656 0.645789 0.645777 0.687433 0.53534 0.569879 0.569862 0.606628 0.569879 0.606643 0.606628 0.645762 0.569862 0.606628 0.606611 0.645746 0.606628 0.645762 0.645746 0.687404 0.606643 0.645777 0.645762 0.687419 0.645777 0.687433 0.687419 0.731761 0.645762 0.687419 0.687404 0.731746 0.687419 0.731761 0.731746 0.778946 0.472367 0.502853 0.502832 0.535283 0.502853 0.535303 0.535283 0.569825 0.502832 0.535283 0.535261 0.569804 0.535283 0.569825 0.569804 0.606572 0.535303 0.569844 0.569825 0.606592 0.569844 0.606611 0.606592 0.645728 0.569825 0.606592 0.606572 0.645709 0.606592 0.645728 0.645709 0.687368 0.535261 0.569804 0.569783 0.606552 0.569804 0.606572 0.606552 0.645689 0.569783 0.606552 0.606531 0.645669 0.606552 0.645689 0.645669 0.687329 0.606572 0.645709 0.645689 0.687349 0.645709 0.687368 0.687349 0.731693 0.645689 0.687349 0.687329 0.731673 0.687349 0.731693 0.731673 0.778875 0.606611 0.645746 0.645728 0.687387 0.645746 0.687404 0.687387 0.731729 0.645728 0.687387 0.687368 0.731712 0.687387 0.731729 0.731712 0.778913 0.687404 0.731746 0.731729 0.77893 0.731746 0.778946 0.77893 0.829174 0.731729 0.77893 0.778913 0.829157 0.77893 0.829174 0.829157 0.882639 0.687368 0.731712 0.731693 0.778895 0.731712 0.778913 0.778895 0.829139 0.731693 0.778895 0.778875 0.82912 0.778895 0.829139 0.82912 0.882602 0.778913 0.829157 0.829139 0.882621 0.829157 0.882639 0.882621 0.939552 0.829139 0.882621 0.882602 0.939533 0.882621 0.93