# vtk DataFile Version 3.0
#This file was generated by the deal.II library on 2020/3/18 at 17:32:13
ASCII
DATASET UNSTRUCTURED_GRID

POINTS 520 double
-1 -1 0
-0.75 -1 0
-1 -0.75 0
-0.75 -0.75 0
-0.75 -1 0
-0.5 -1 0
-0.75 -0.75 0
-0.5 -0.75 0
-1 -0.75 0
-0.75 -0.75 0
-1 -0.5 0
-0.75 -0.5 0
-0.75 -0.75 0
-0.5 -0.75 0
-0.75 -0.5 0
-0.5 -0.5 0
-0.5 -1 0
-0.25 -1 0
-0.5 -0.75 0
-0.25 -0.75 0
-0.25 -1 0
0 -1 0
-0.25 -0.75 0
0 -0.75 0
-0.5 -0.75 0
-0.25 -0.75 0
-0.5 -0.5 0
-0.25 -0.5 0
-1 -0.5 0
-0.75 -0.5 0
-1 -0.25 0
-0.75 -0.25 0
-0.75 -0.5 0
-0.5 -0.5 0
-0.75 -0.25 0
-0.5 -0.25 0
-1 -0.25 0
-0.75 -0.25 0
-1 0 0
-0.75 0 0
-0.25 -0.25 0
0 -0.25 0
-0.25 0 0
0 0 0
0 -1 0
0.25 -1 0
0 -0.75 0
0.25 -0.75 0
0.25 -1 0
0.5 -1 0
0.25 -0.75 0
0.5 -0.75 0
0 -0.75 0
0.25 -0.75 0
0 -0.5 0
0.25 -0.5 0
0.25 -0.75 0
0.5 -0.75 0
0.25 -0.5 0
0.5 -0.5 0
0.5 -1 0
0.75 -1 0
0.5 -0.75 0
0.75 -0.75 0
0.75 -1 0
1 -1 0
0.75 -0.75 0
1 -0.75 0
0.5 -0.75 0
0.75 -0.75 0
0.5 -0.5 0
0.75 -0.5 0
0.75 -0.75 0
1 -0.75 0
0.75 -0.5 0
1 -0.5 0
0 -0.5 0
0.25 -0.5 0
0 -0.25 0
0.25 -0.25 0
0.25 -0.5 0
0.5 -0.5 0
0.25 -0.25 0
0.5 -0.25 0
0 -0.25 0
0.25 -0.25 0
0 0 0
0.25 0 0
0.5 -0.5 0
0.75 -0.5 0
0.5 -0.25 0
0.75 -0.25 0
0.75 -0.5 0
1 -0.5 0
0.75 -0.25 0
1 -0.25 0
0.75 -0.25 0
1 -0.25 0
0.75 0 0
1 0 0
-1 0 0
-0.75 0 0
-1 0.25 0
-0.75 0.25 0
-0.75 0 0
-0.5 0 0
-0.75 0.25 0
-0.5 0.25 0
-1 0.25 0
-0.75 0.25 0
-1 0.5 0
-0.75 0.5 0
-0.75 0.25 0
-0.5 0.25 0
-0.75 0.5 0
-0.5 0.5 0
-0.5 0 0
-0.25 0 0
-0.5 0.25 0
-0.25 0.25 0
-0.25 0 0
0 0 0
-0.25 0.25 0
0 0.25 0
-0.5 0.25 0
-0.25 0.25 0
-0.5 0.5 0
-0.25 0.5 0
-1 0.5 0
-0.75 0.5 0
-1 0.75 0
-0.75 0.75 0
-0.75 0.5 0
-0.5 0.5 0
-0.75 0.75 0
-0.5 0.75 0
-1 0.75 0
-0.75 0.75 0
-1 1 0
-0.75 1 0
-0.75 0.75 0
-0.5 0.75 0
-0.75 1 0
-0.5 1 0
-0.5 0.5 0
-0.25 0.5 0
-0.5 0.75 0
-0.25 0.75 0
-0.5 0.75 0
-0.25 0.75 0
-0.5 1 0
-0.25 1 0
-0.25 0.75 0
0 0.75 0
-0.25 1 0
0 1 0
0 0 0
0.25 0 0
0 0.25 0
0.25 0.25 0
0.75 0 0
1 0 0
0.75 0.25 0
1 0.25 0
0 0.75 0
0.25 0.75 0
0 1 0
0.25 1 0
-0.25 -0.75 0
-0.125 -0.75 0
-0.25 -0.625 0
-0.125 -0.625 0
-0.125 -0.75 0
0 -0.75 0
-0.125 -0.625 0
0 -0.625 0
-0.25 -0.625 0
-0.125 -0.625 0
-0.25 -0.5 0
-0.125 -0.5 0
-0.125 -0.625 0
0 -0.625 0
-0.125 -0.5 0
0 -0.5 0
-0.75 -0.25 0
-0.625 -0.25 0
-0.75 -0.125 0
-0.625 -0.125 0
-0.625 -0.25 0
-0.5 -0.25 0
-0.625 -0.125 0
-0.5 -0.125 0
-0.75 -0.125 0
-0.625 -0.125 0
-0.75 0 0
-0.625 0 0
-0.625 -0.125 0
-0.5 -0.125 0
-0.625 0 0
-0.5 0 0
-0.5 -0.5 0
-0.375 -0.5 0
-0.5 -0.375 0
-0.375 -0.375 0
-0.375 -0.5 0
-0.25 -0.5 0
-0.375 -0.375 0
-0.25 -0.375 0
-0.5 -0.375 0
-0.375 -0.375 0
-0.5 -0.25 0
-0.375 -0.25 0
-0.375 -0.375 0
-0.25 -0.375 0
-0.375 -0.25 0
-0.25 -0.25 0
-0.25 -0.5 0
-0.125 -0.5 0
-0.25 -0.375 0
-0.125 -0.375 0
-0.125 -0.5 0
0 -0.5 0
-0.125 -0.375 0
0 -0.375 0
-0.25 -0.375 0
-0.125 -0.375 0
-0.25 -0.25 0
-0.125 -0.25 0
-0.125 -0.375 0
0 -0.375 0
-0.125 -0.25 0
0 -0.25 0
-0.5 -0.25 0
-0.375 -0.25 0
-0.5 -0.125 0
-0.375 -0.125 0
-0.375 -0.25 0
-0.25 -0.25 0
-0.375 -0.125 0
-0.25 -0.125 0
-0.5 -0.125 0
-0.375 -0.125 0
-0.5 0 0
-0.375 0 0
-0.375 -0.125 0
-0.25 -0.125 0
-0.375 0 0
-0.25 0 0
0.25 -0.25 0
0.375 -0.25 0
0.25 -0.125 0
0.375 -0.125 0
0.375 -0.25 0
0.5 -0.25 0
0.375 -0.125 0
0.5 -0.125 0
0.25 -0.125 0
0.375 -0.125 0
0.25 0 0
0.375 0 0
0.375 -0.125 0
0.5 -0.125 0
0.375 0 0
0.5 0 0
0.5 -0.25 0
0.625 -0.25 0
0.5 -0.125 0
0.625 -0.125 0
0.625 -0.25 0
0.75 -0.25 0
0.625 -0.125 0
0.75 -0.125 0
0.5 -0.125 0
0.625 -0.125 0
0.5 0 0
0.625 0 0
0.625 -0.125 0
0.75 -0.125 0
0.625 0 0
0.75 0 0
-0.25 0.25 0
-0.125 0.25 0
-0.25 0.375 0
-0.125 0.375 0
-0.125 0.25 0
0 0.25 0
-0.125 0.375 0
0 0.375 0
-0.25 0.375 0
-0.125 0.375 0
-0.25 0.5 0
-0.125 0.5 0
-0.125 0.375 0
0 0.375 0
-0.125 0.5 0
0 0.5 0
-0.25 0.5 0
-0.125 0.5 0
-0.25 0.625 0
-0.125 0.625 0
-0.125 0.5 0
0 0.5 0
-0.125 0.625 0
0 0.625 0
-0.25 0.625 0
-0.125 0.625 0
-0.25 0.75 0
-0.125 0.75 0
-0.125 0.625 0
0 0.625 0
-0.125 0.75 0
0 0.75 0
0.25 0 0
0.375 0 0
0.25 0.125 0
0.375 0.125 0
0.375 0 0
0.5 0 0
0.375 0.125 0
0.5 0.125 0
0.25 0.125 0
0.375 0.125 0
0.25 0.25 0
0.375 0.25 0
0.375 0.125 0
0.5 0.125 0
0.375 0.25 0
0.5 0.25 0
0 0.25 0
0.125 0.25 0
0 0.375 0
0.125 0.375 0
0.125 0.25 0
0.25 0.25 0
0.125 0.375 0
0.25 0.375 0
0 0.375 0
0.125 0.375 0
0 0.5 0
0.125 0.5 0
0.125 0.375 0
0.25 0.375 0
0.125 0.5 0
0.25 0.5 0
0.25 0.25 0
0.375 0.25 0
0.25 0.375 0
0.375 0.375 0
0.375 0.25 0
0.5 0.25 0
0.375 0.375 0
0.5 0.375 0
0.25 0.375 0
0.375 0.375 0
0.25 0.5 0
0.375 0.5 0
0.375 0.375 0
0.5 0.375 0
0.375 0.5 0
0.5 0.5 0
0.5 0 0
0.625 0 0
0.5 0.125 0
0.625 0.125 0
0.625 0 0
0.75 0 0
0.625 0.125 0
0.75 0.125 0
0.5 0.125 0
0.625 0.125 0
0.5 0.25 0
0.625 0.25 0
0.625 0.125 0
0.75 0.125 0
0.625 0.25 0
0.75 0.25 0
0.5 0.25 0
0.625 0.25 0
0.5 0.375 0
0.625 0.375 0
0.625 0.25 0
0.75 0.25 0
0.625 0.375 0
0.75 0.375 0
0.5 0.375 0
0.625 0.375 0
0.5 0.5 0
0.625 0.5 0
0.625 0.375 0
0.75 0.375 0
0.625 0.5 0
0.75 0.5 0
0.75 0.25 0
0.875 0.25 0
0.75 0.375 0
0.875 0.375 0
0.875 0.25 0
1 0.25 0
0.875 0.375 0
1 0.375 0
0.75 0.375 0
0.875 0.375 0
0.75 0.5 0
0.875 0.5 0
0.875 0.375 0
1 0.375 0
0.875 0.5 0
1 0.5 0
0 0.5 0
0.125 0.5 0
0 0.625 0
0.125 0.625 0
0.125 0.5 0
0.25 0.5 0
0.125 0.625 0
0.25 0.625 0
0 0.625 0
0.125 0.625 0
0 0.75 0
0.125 0.75 0
0.125 0.625 0
0.25 0.625 0
0.125 0.75 0
0.25 0.75 0
0.25 0.5 0
0.375 0.5 0
0.25 0.625 0
0.375 0.625 0
0.375 0.5 0
0.5 0.5 0
0.375 0.625 0
0.5 0.625 0
0.25 0.625 0
0.375 0.625 0
0.25 0.75 0
0.375 0.75 0
0.375 0.625 0
0.5 0.625 0
0.375 0.75 0
0.5 0.75 0
0.25 0.75 0
0.375 0.75 0
0.25 0.875 0
0.375 0.875 0
0.375 0.75 0
0.5 0.75 0
0.375 0.875 0
0.5 0.875 0
0.25 0.875 0
0.375 0.875 0
0.25 1 0
0.375 1 0
0.375 0.875 0
0.5 0.875 0
0.375 1 0
0.5 1 0
0.5 0.5 0
0.625 0.5 0
0.5 0.625 0
0.625 0.625 0
0.625 0.5 0
0.75 0.5 0
0.625 0.625 0
0.75 0.625 0
0.5 0.625 0
0.625 0.625 0
0.5 0.75 0
0.625 0.75 0
0.625 0.625 0
0.75 0.625 0
0.625 0.75 0
0.75 0.75 0
0.75 0.5 0
0.875 0.5 0
0.75 0.625 0
0.875 0.625 0
0.875 0.5 0
1 0.5 0
0.875 0.625 0
1 0.625 0
0.75 0.625 0
0.875 0.625 0
0.75 0.75 0
0.875 0.75 0
0.875 0.625 0
1 0.625 0
0.875 0.75 0
1 0.75 0
0.5 0.75 0
0.625 0.75 0
0.5 0.875 0
0.625 0.875 0
0.625 0.75 0
0.75 0.75 0
0.625 0.875 0
0.75 0.875 0
0.5 0.875 0
0.625 0.875 0
0.5 1 0
0.625 1 0
0.625 0.875 0
0.75 0.875 0
0.625 1 0
0.75 1 0
0.75 0.75 0
0.875 0.75 0
0.75 0.875 0
0.875 0.875 0
0.875 0.75 0
1 0.75 0
0.875 0.875 0
1 0.875 0
0.75 0.875 0
0.875 0.875 0
0.75 1 0
0.875 1 0
0.875 0.875 0
1 0.875 0
0.875 1 0
1 1 0

CELLS 130 650
4	0	1	3	2
4	4	5	7	6
4	8	9	11	10
4	12	13	15	14
4	16	17	19	18
4	20	21	23	22
4	24	25	27	26
4	28	29	31	30
4	32	33	35	34
4	36	37	39	38
4	40	41	43	42
4	44	45	47	46
4	48	49	51	50
4	52	53	55	54
4	56	57	59	58
4	60	61	63	62
4	64	65	67	66
4	68	69	71	70
4	72	73	75	74
4	76	77	79	78
4	80	81	83	82
4	84	85	87	86
4	88	89	91	90
4	92	93	95	94
4	96	97	99	98
4	100	101	103	102
4	104	105	107	106
4	108	109	111	110
4	112	113	115	114
4	116	117	119	118
4	120	121	123	122
4	124	125	127	126
4	128	129	131	130
4	132	133	135	134
4	136	137	139	138
4	140	141	143	142
4	144	145	147	146
4	148	149	151	150
4	152	153	155	154
4	156	157	159	158
4	160	161	163	162
4	164	165	167	166
4	168	169	171	170
4	172	173	175	174
4	176	177	179	178
4	180	181	183	182
4	184	185	187	186
4	188	189	191	190
4	192	193	195	194
4	196	197	199	198
4	200	201	203	202
4	204	205	207	206
4	208	209	211	210
4	212	213	215	214
4	216	217	219	218
4	220	221	223	222
4	224	225	227	226
4	228	229	231	230
4	232	233	235	234
4	236	237	239	238
4	240	241	243	242
4	244	245	247	246
4	248	249	251	250
4	252	253	255	254
4	256	257	259	258
4	260	261	263	262
4	264	265	267	266
4	268	269	271	270
4	272	273	275	274
4	276	277	279	278
4	280	281	283	282
4	284	285	287	286
4	288	289	291	290
4	292	293	295	294
4	296	297	299	298
4	300	301	303	302
4	304	305	307	306
4	308	309	311	310
4	312	313	315	314
4	316	317	319	318
4	320	321	323	322
4	324	325	327	326
4	328	329	331	330
4	332	333	335	334
4	336	337	339	338
4	340	341	343	342
4	344	345	347	346
4	348	349	351	350
4	352	353	355	354
4	356	357	359	358
4	360	361	363	362
4	364	365	367	366
4	368	369	371	370
4	372	373	375	374
4	376	377	379	378
4	380	381	383	382
4	384	385	387	386
4	388	389	391	390
4	392	393	395	394
4	396	397	399	398
4	400	401	403	402
4	404	405	407	406
4	408	409	411	410
4	412	413	415	414
4	416	417	419	418
4	420	421	423	422
4	424	425	427	426
4	428	429	431	430
4	432	433	435	434
4	436	437	439	438
4	440	441	443	442
4	444	445	447	446
4	448	449	451	450
4	452	453	455	454
4	456	457	459	458
4	460	461	463	462
4	464	465	467	466
4	468	469	471	470
4	472	473	475	474
4	476	477	479	478
4	480	481	483	482
4	484	485	487	486
4	488	489	491	490
4	492	493	495	494
4	496	497	499	498
4	500	501	503	502
4	504	505	507	506
4	508	509	511	510
4	512	513	515	514
4	516	517	519	518

CELL_TYPES 130
 9 9 9 9 9 9 9 9 9 9 9 9 9 9 9 9 9 9 9 9 9 9 9 9 9 9 9 9 9 9 9 9 9 9 9 9 9 9 9 9 9 9 9 9 9 9 9 9 9 9 9 9 9 9 9 9 9 9 9 9 9 9 9 9 9 9 9 9 9 9 9 9 9 9 9 9 9 9 9 9 9 9 9 9 9 9 9 9 9 9 9 9 9 9 9 9 9 9 9 9 9 9 9 9 9 9 9 9 9 9 9 9 9 9 9 9 9 9 9 9 9 9 9 9 9 9 9 9 9 9
POINT_DATA 520
SCALARS solution double 1
LOOKUP_TABLE default
0.135335 0.173774 0.173774 0.315799 0.173774 0.22313 0.315799 0.469465 0.173774 0.315799 0.22313 0.469465 0.315799 0.469465 0.469465 0.742866 0.22313 0.286505 0.469465 0.598393 0.286505 0.367879 0.598393 0.692693 0.469465 0.598393 0.742866 1.05435 0.22313 0.469465 0.286505 0.598393 0.469465 0.742866 0.598393 1.05435 0.286505 0.598393 0.367879 0.692693 1.08667 1.11195 1.11195 1.14498 0.367879 0.472367 0.692693 0.752057 0.472367 0.606531 0.752057 0.848238 0.692693 0.752057 1.08621 1.09933 0.752057 0.848238 1.09933 1.07304 0.606531 0.778801 0.848238 1.0177 0.778801 1 1.0177 1.28403 0.848238 1.0177 1.07304 1.28118 1.0177 1.28403 1.28118 1.64872 1.08621 1.09933 1.11195 1.1395 1.09933 1.07304 1.1395 1.18348 1.11195 1.1395 1.14498 1.18188 1.07304 1.28118 1.18348 1.5638 1.28118 1.64872 1.5638 2.117 1.5638 2.117 1.90604 2.71828 0.367879 0.692693 0.472367 0.752057 0.692693 1.08621 0.752057 1.09933 0.472367 0.752057 0.606531 0.848238 0.752057 1.09933 0.848238 1.07304 1.08621 1.11195 1.09933 1.1395 1.11195 1.14498 1.1395 1.18188 1.09933 1.1395 1.07304 1.18348 0.606531 0.848238 0.778801 1.0177 0.848238 1.07304 1.0177 1.28118 0.778801 1.0177 1 1.28403 1.0177 1.28118 1.28403 1.64872 1.07304 1.18348 1.28118 1.5638 1.28118 1.5638 1.64872 2.117 1.5638 1.90604 2.117 2.71828 1.14498 1.18188 1.18188 1.22551 1.90604 2.71828 2.42205 3.49034 1.90604 2.42205 2.71828 3.49034 0.598393 0.645543 0.826373 0.852935 0.645543 0.692693 0.852935 0.889451 0.826373 0.852935 1.05435 1.07487 0.852935 0.889451 1.07487 1.08621 0.598393 0.826373 0.645543 0.852935 0.826373 1.05435 0.852935 1.07487 0.645543 0.852935 0.692693 0.889451 0.852935 1.07487 0.889451 1.08621 0.742866 0.898609 0.898609 1.07129 0.898609 1.05435 1.07129 1.07144 0.898609 1.07129 1.05435 1.07144 1.07129 1.07144 1.07144 1.08667 1.05435 1.07487 1.07144 1.08579 1.07487 1.08621 1.08579 1.09908 1.07144 1.08579 1.08667 1.09931 1.08579 1.09908 1.09931 1.11195 1.05435 1.07144 1.07487 1.08579 1.07144 1.08667 1.08579 1.09931 1.07487 1.08579 1.08621 1.09908 1.08579 1.09931 1.09908 1.11195 1.1395 1.16149 1.16069 1.17916 1.16149 1.18348 1.17916 1.19613 1.16069 1.17916 1.18188 1.20012 1.17916 1.19613 1.20012 1.21712 1.18348 1.37364 1.19613 1.44662 1.37364 1.5638 1.44662 1.73492 1.19613 1.44662 1.21712 1.55281 1.44662 1.73492 1.55281 1.90604 1.1395 1.16069 1.16149 1.17916 1.16069 1.18188 1.17916 1.20012 1.16149 1.17916 1.18348 1.19613 1.17916 1.20012 1.19613 1.21712 1.18348 1.19613 1.37364 1.44662 1.19613 1.21712 1.44662 1.55281 1.37364 1.44662 1.5638 1.73492 1.44662 1.55281 1.73492 1.90604 1.18188 1.20012 1.20369 1.22461 1.20012 1.21712 1.22461 1.24453 1.20369 1.22461 1.22551 1.25781 1.22461 1.24453 1.25781 1.28333 1.18188 1.20369 1.20012 1.22461 1.20369 1.22551 1.22461 1.25781 1.20012 1.22461 1.21712 1.24453 1.22461 1.25781 1.24453 1.28333 1.22551 1.25781 1.25781 1.25329 1.25781 1.28333 1.25329 1.71632 1.25781 1.25329 1.28333 1.71632 1.25329 1.71632 1.71632 2.19321 1.21712 1.55281 1.24453 1.68868 1.55281 1.90604 1.68868 2.16405 1.24453 1.68868 1.28333 1.91849 1.68868 2.16405 1.91849 2.42205 1.28333 1.91849 1.71632 2.25352 1.91849 2.42205 2.25352 2.80093 1.71632 2.25352 2.19321 2.70021 2.25352 2.80093 2.70021 3.2491 2.42205 2.9562 2.80093 3.3583 2.9562 3.49034 3.3583 3.95508 2.80093 3.3583 3.2491 3.8391 3.3583 3.95508 3.8391 4.48169 1.21712 1.24453 1.55281 1.68868 1.24453 1.28333 1.68868 1.91849 1.55281 1.68868 1.90604 2.16405 1.68868 1.91849 2.16405 2.42205 1.28333 1.71632 1.91849 2.25352 1.71632 2.19321 2.25352 2.70021 1.91849 2.25352 2.42205 2.80093 2.25352 2.70021 2.80093 3.2491 2.42205 2.80093 2.9562 3.3583 2.80093 3.2491 3.3583 3.8391 2.9562 3.3583 3.49034 3.95508 3.3583 3.8391 3.95508 4.48169 2.19321 2.70021 2.70021 3.20779 2.70021 3.2491 3.20779 3.77011 2.70021 3.20779 3.2491 3.77011 3.20779 3.77011 3.77011 4.35834 3.2491 3.8391 3.77011 4.3909 3.8391 4.48169 4.3909 5.07842 3.77011 4.3909 4.35834 5.01712 4.3909 5.07842 5.01712 5.7546 3.2491 3.77011 3.8391 4.3909 3.77011 4.35834 4.3909 5.01712 3.8391 4.3909 4.48169 5.07842 4.3909 5.01712 5.07842 5.7546 4.35834 5.01712 5.01712 5.72395 5.01712 5.7546 5.72395 6.52082 5.01712 5.72395 5.7546 6.52082 5.72395 6.52082 6.52082 7.38906 
SCALARS L2_error double 1
LOOKUP_TABLE default
0.00808745 0.00808745 0.00808745 0.00808745 0.0207615 0.0207615 0.0207615 0.0207615 0.0207615 0.0207615 0.0207615 0.0207615 0.0548318 0.0548318 0.0548318 0.0548318 0.0305757 0.0305757 0.0305757 0.0305757 0.0333993 0.0333993 0.0333993 0.0333993 0.0893594 0.0893594 0.0893594 0.0893594 0.0305757 0.0305757 0.0305757 0.0305757 0.0893594 0.0893594 0.0893594 0.0893594 0.0333993 0.0333993 0.0333993 0.0333993 0.0844859 0.0844859 0.0844859 0.0844859 0.0276819 0.0276819 0.0276819 0.0276819 0.0172316 0.0172316 0.0172316 0.0172316 0.0765957 0.0765957 0.0765957 0.0765957 0.0423809 0.0423809 0.0423809 0.0423809 0.00844136 0.00844136 0.00844136 0.00844136 0.00394476 0.00394476 0.00394476 0.00394476 0.013285 0.013285 0.013285 0.013285 0.00450264 0.00450264 0.00450264 0.00450264 0.0834035 0.0834035 0.0834035 0.0834035 0.0366944 0.0366944 0.0366944 0.0366944 0.0412568 0.0412568 0.0412568 0.0412568 0.0102989 0.0102989 0.0102989 0.0102989 0.00501025 0.00501025 0.00501025 0.00501025 0.0177546 0.0177546 0.0177546 0.0177546 0.0276819 0.0276819 0.0276819 0.0276819 0.0765957 0.0765957 0.0765957 0.0765957 0.0172316 0.0172316 0.0172316 0.0172316 0.0423809 0.0423809 0.0423809 0.0423809 0.0834035 0.0834035 0.0834035 0.0834035 0.0412568 0.0412568 0.0412568 0.0412568 0.0366944 0.0366944 0.0366944 0.0366944 0.00844136 0.00844136 0.00844136 0.00844136 0.013285 0.013285 0.013285 0.013285 0.00394476 0.00394476 0.00394476 0.00394476 0.00450264 0.00450264 0.00450264 0.00450264 0.0102989 0.0102989 0.0102989 0.0102989 0.00501025 0.00501025 0.00501025 0.00501025 0.0177546 0.0177546 0.0177546 0.0177546 0.0393719 0.0393719 0.0393719 0.0393719 0.0310812 0.0310812 0.0310812 0.0310812 0.0310812 0.0310812 0.0310812 0.0310812 0.0396333 0.0396333 0.0396333 0.0396333 0.0375089 0.0375089 0.0375089 0.0375089 0.0602058 0.0602058 0.0602058 0.0602058 0.0552507 0.0552507 0.0552507 0.0552507 0.0396333 0.0396333 0.0396333 0.0396333 0.0602058 0.0602058 0.0602058 0.0602058 0.0375089 0.0375089 0.0375089 0.0375089 0.0552507 0.0552507 0.0552507 0.0552507 0.0609489 0.0609489 0.0609489 0.0609489 0.0689042 0.0689042 0.0689042 0.0689042 0.0689042 0.0689042 0.0689042 0.0689042 0.0674746 0.0674746 0.0674746 0.0674746 0.067008 0.067008 0.067008 0.067008 0.059984 0.059984 0.059984 0.059984 0.0598938 0.0598938 0.0598938 0.0598938 0.0514904 0.0514904 0.0514904 0.0514904 0.067008 0.067008 0.067008 0.067008 0.0598938 0.0598938 0.0598938 0.0598938 0.059984 0.059984 0.059984 0.059984 0.0514904 0.0514904 0.0514904 0.0514904 0.00700176 0.00700176 0.00700176 0.00700176 0.0150982 0.0150982 0.0150982 0.0150982 0.0149949 0.0149949 0.0149949 0.0149949 0.033399 0.033399 0.033399 0.033399 0.0202993 0.0202993 0.0202993 0.0202993 0.0155074 0.0155074 0.0155074 0.0155074 0.0377026 0.0377026 0.0377026 0.0377026 0.0267337 0.0267337 0.0267337 0.0267337 0.00700176 0.00700176 0.00700176 0.00700176 0.0149949 0.0149949 0.0149949 0.0149949 0.0150982 0.0150982 0.0150982 0.0150982 0.033399 0.033399 0.033399 0.033399 0.0202993 0.0202993 0.0202993 0.0202993 0.0377026 0.0377026 0.0377026 0.0377026 0.0155074 0.0155074 0.0155074 0.0155074 0.0267337 0.0267337 0.0267337 0.0267337 0.0328307 0.0328307 0.0328307 0.0328307 0.0544765 0.0544765 0.0544765 0.0544765 0.0536565 0.0536565 0.0536565 0.0536565 0.0779661 0.0779661 0.0779661 0.0779661 0.0328307 0.0328307 0.0328307 0.0328307 0.0536565 0.0536565 0.0536565 0.0536565 0.0544765 0.0544765 0.0544765 0.0544765 0.0779661 0.0779661 0.0779661 0.0779661 0.0785683 0.0785683 0.0785683 0.0785683 0.0928756 0.0928756 0.0928756 0.0928756 0.0928756 0.0928756 0.0928756 0.0928756 0.0857164 0.0857164 0.0857164 0.0857164 0.0561719 0.0561719 0.0561719 0.0561719 0.0369729 0.0369729 0.0369729 0.0369729 0.0740865 0.0740865 0.0740865 0.0740865 0.0447818 0.0447818 0.0447818 0.0447818 0.0769047 0.0769047 0.0769047 0.0769047 0.0471163 0.0471163 0.0471163 0.0471163 0.0637474 0.0637474 0.0637474 0.0637474 0.0421365 0.0421365 0.0421365 0.0421365 0.0256475 0.0256475 0.0256475 0.0256475 0.00829665 0.00829665 0.00829665 0.00829665 0.0234319 0.0234319 0.0234319 0.0234319 0.00789396 0.00789396 0.00789396 0.00789396 0.0561719 0.0561719 0.0561719 0.0561719 0.0740865 0.0740865 0.0740865 0.0740865 0.0369729 0.0369729 0.0369729 0.0369729 0.0447818 0.0447818 0.0447818 0.0447818 0.0769047 0.0769047 0.0769047 0.0769047 0.0637474 0.0637474 0.0637474 0.0637474 0.0471163 0.0471163 0.0471163 0.0471163 0.0421365 0.0421365 0.0421365 0.0421365 0.0256475 0.0256475 0.0256475 0.0256475 0.0234319 0.0234319 0.0234319 0.0234319 0.00829665 0.00829665 0.00829665 0.00829665 0.00789396 0.00789396 0.00789396 0.00789396 0.0483893 0.0483893 0.0483893 0.0483893 0.0332869 0.0332869 0.0332869 0.0332869 0.0332869 0.0332869 0.0332869 0.0332869 0.023325 0.023325 0.023325 0.023325 0.0189821 0.0189821 0.0189821 0.0189821 0.00629862 0.00629862 0.00629862 0.00629862 0.0133543 0.0133543 0.0133543 0.0133543 0.00424367 0.00424367 0.00424367 0.00424367 0.0189821 0.0189821 0.0189821 0.0189821 0.0133543 0.0133543 0.0133543 0.0133543 0.00629862 0.00629862 0.00629862 0.00629862 0.00424367 0.00424367 0.00424367 0.00424367 0.00741957 0.00741957 0.00741957 0.00741957 0.00216558 0.00216558 0.00216558 0.00216558 0.00216558 0.00216558 0.00216558 0.00216558 0.00162364 0.00162364 0.00162364 0.00162364 
SCALARS H1_error double 1
LOOKUP_TABLE default
0.0765043 0.0765043 0.0765043 0.0765043 0.151529 0.151529 0.151529 0.151529 0.151529 0.151529 0.151529 0.151529 0.211778 0.211778 0.211778 0.211778 0.211766 0.211766 0.211766 0.211766 0.228636 0.228636 0.228636 0.228636 0.320538 0.320538 0.320538 0.320538 0.211766 0.211766 0.211766 0.211766 0.320538 0.320538 0.320538 0.320538 0.228636 0.228636 0.228636 0.228636 0.251605 0.251605 0.251605 0.251605 0.192059 0.192059 0.192059 0.192059 0.120893 0.120893 0.120893 0.120893 0.261351 0.261351 0.261351 0.261351 0.202723 0.202723 0.202723 0.202723 0.0593555 0.0593555 0.0593555 0.0593555 0.029812 0.029812 0.029812 0.029812 0.0699437 0.0699437 0.0699437 0.0699437 0.0358937 0.0358937 0.0358937 0.0358937 0.254569 0.254569 0.254569 0.254569 0.302951 0.302951 0.302951 0.302951 0.310579 0.310579 0.310579 0.310579 0.138988 0.138988 0.138988 0.138988 0.0811142 0.0811142 0.0811142 0.0811142 0.179654 0.179654 0.179654 0.179654 0.192059 0.192059 0.192059 0.192059 0.261351 0.261351 0.261351 0.261351 0.120893 0.120893 0.120893 0.120893 0.202723 0.202723 0.202723 0.202723 0.254569 0.254569 0.254569 0.254569 0.310579 0.310579 0.310579 0.310579 0.302951 0.302951 0.302951 0.302951 0.0593555 0.0593555 0.0593555 0.0593555 0.0699437 0.0699437 0.0699437 0.0699437 0.029812 0.029812 0.029812 0.029812 0.0358937 0.0358937 0.0358937 0.0358937 0.138988 0.138988 0.138988 0.138988 0.0811142 0.0811142 0.0811142 0.0811142 0.179654 0.179654 0.179654 0.179654 0.403822 0.403822 0.403822 0.403822 0.273354 0.273354 0.273354 0.273354 0.273354 0.273354 0.273354 0.273354 0.171256 0.171256 0.171256 0.171256 0.149012 0.149012 0.149012 0.149012 0.180086 0.180086 0.180086 0.180086 0.15928 0.15928 0.15928 0.15928 0.171256 0.171256 0.171256 0.171256 0.180086 0.180086 0.180086 0.180086 0.149012 0.149012 0.149012 0.149012 0.15928 0.15928 0.15928 0.15928 0.169838 0.169838 0.169838 0.169838 0.104007 0.104007 0.104007 0.104007 0.104007 0.104007 0.104007 0.104007 0.107733 0.107733 0.107733 0.107733 0.0990037 0.0990037 0.0990037 0.0990037 0.108471 0.108471 0.108471 0.108471 0.106334 0.106334 0.106334 0.106334 0.115472 0.115472 0.115472 0.115472 0.0990037 0.0990037 0.0990037 0.0990037 0.106334 0.106334 0.106334 0.106334 0.108471 0.108471 0.108471 0.108471 0.115472 0.115472 0.115472 0.115472 0.173041 0.173041 0.173041 0.173041 0.203792 0.203792 0.203792 0.203792 0.200309 0.200309 0.200309 0.200309 0.233495 0.233495 0.233495 0.233495 0.14696 0.14696 0.14696 0.14696 0.0970178 0.0970178 0.0970178 0.0970178 0.173283 0.173283 0.173283 0.173283 0.132989 0.132989 0.132989 0.132989 0.173041 0.173041 0.173041 0.173041 0.200309 0.200309 0.200309 0.200309 0.203792 0.203792 0.203792 0.203792 0.233495 0.233495 0.233495 0.233495 0.14696 0.14696 0.14696 0.14696 0.173283 0.173283 0.173283 0.173283 0.0970178 0.0970178 0.0970178 0.0970178 0.132989 0.132989 0.132989 0.132989 0.230032 0.230032 0.230032 0.230032 0.266496 0.266496 0.266496 0.266496 0.259468 0.259468 0.259468 0.259468 0.300038 0.300038 0.300038 0.300038 0.230032 0.230032 0.230032 0.230032 0.259468 0.259468 0.259468 0.259468 0.266496 0.266496 0.266496 0.266496 0.300038 0.300038 0.300038 0.300038 0.322167 0.322167 0.322167 0.322167 0.197651 0.197651 0.197651 0.197651 0.197651 0.197651 0.197651 0.197651 0.255495 0.255495 0.255495 0.255495 0.227751 0.227751 0.227751 0.227751 0.172622 0.172622 0.172622 0.172622 0.319924 0.319924 0.319924 0.319924 0.203054 0.203054 0.203054 0.203054 0.313015 0.313015 0.313015 0.313015 0.192672 0.192672 0.192672 0.192672 0.230435 0.230435 0.230435 0.230435 0.18112 0.18112 0.18112 0.18112 0.163852 0.163852 0.163852 0.163852 0.13087 0.13087 0.13087 0.13087 0.143564 0.143564 0.143564 0.143564 0.1279 0.1279 0.1279 0.1279 0.227751 0.227751 0.227751 0.227751 0.319924 0.319924 0.319924 0.319924 0.172622 0.172622 0.172622 0.172622 0.203054 0.203054 0.203054 0.203054 0.313015 0.313015 0.313015 0.313015 0.230435 0.230435 0.230435 0.230435 0.192672 0.192672 0.192672 0.192672 0.18112 0.18112 0.18112 0.18112 0.163852 0.163852 0.163852 0.163852 0.143564 0.143564 0.143564 0.143564 0.13087 0.13087 0.13087 0.13087 0.1279 0.1279 0.1279 0.1279 0.180993 0.180993 0.180993 0.180993 0.148274 0.148274 0.148274 0.148274 0.148274 0.148274 0.148274 0.148274 0.11949 0.11949 0.11949 0.11949 0.122691 0.122691 0.122691 0.122691 0.109466 0.109466 0.109466 0.109466 0.0976121 0.0976121 0.0976121 0.0976121 0.0858365 0.0858365 0.0858365 0.0858365 0.122691 0.122691 0.122691 0.122691 0.0976121 0.0976121 0.0976121 0.0976121 0.109466 0.109466 0.109466 0.109466 0.0858365 0.0858365 0.0858365 0.0858365 0.0756507 0.0756507 0.0756507 0.0756507 0.0630828 0.0630828 0.0630828 0.0630828 0.0630828 0.0630828 0.0630828 0.0630828 0.049328 0.049328 0.049328 0.049328 
SCALARS error_estimator double 1
LOOKUP_TABLE default
0.00387287 0.00387287 0.00387287 0.00387287 0.00630943 0.00630943 0.00630943 0.00630943 0.00630943 0.00630943 0.00630943 0.00630943 0.00951266 0.00951266 0.00951266 0.00951266 0.0229222 0.0229222 0.0229222 0.0229222 0.0258971 0.0258971 0.0258971 0.0258971 0.0643528 0.0643528 0.0643528 0.0643528 0.0229222 0.0229222 0.0229222 0.0229222 0.0643528 0.0643528 0.0643528 0.0643528 0.0258971 0.0258971 0.0258971 0.0258971 0.00172347 0.00172347 0.00172347 0.00172347 0.0189108 0.0189108 0.0189108 0.0189108 0.0180867 0.0180867 0.0180867 0.0180867 0.0841764 0.0841764 0.0841764 0.0841764 0.0665074 0.0665074 0.0665074 0.0665074 0.0228597 0.0228597 0.0228597 0.0228597 0.0224284 0.0224284 0.0224284 0.0224284 0.0523396 0.0523396 0.0523396 0.0523396 0.0377106 0.0377106 0.0377106 0.0377106 0.0821862 0.0821862 0.0821862 0.0821862 0.0883611 0.0883611 0.0883611 0.0883611 0.00250616 0.00250616 0.00250616 0.00250616 0.0828709 0.0828709 0.0828709 0.0828709 0.0495703 0.0495703 0.0495703 0.0495703 0.0568944 0.0568944 0.0568944 0.0568944 0.0189108 0.0189108 0.0189108 0.0189108 0.0841764 0.0841764 0.0841764 0.0841764 0.0180867 0.0180867 0.0180867 0.0180867 0.0665074 0.0665074 0.0665074 0.0665074 0.0821862 0.0821862 0.0821862 0.0821862 0.00250616 0.00250616 0.00250616 0.00250616 0.0883611 0.0883611 0.0883611 0.0883611 0.0228597 0.0228597 0.0228597 0.0228597 0.0523396 0.0523396 0.0523396 0.0523396 0.0224284 0.0224284 0.0224284 0.0224284 0.0377106 0.0377106 0.0377106 0.0377106 0.0828709 0.0828709 0.0828709 0.0828709 0.0495703 0.0495703 0.0495703 0.0495703 0.0568944 0.0568944 0.0568944 0.0568944 0.00319535 0.00319535 0.00319535 0.00319535 0.0618838 0.0618838 0.0618838 0.0618838 0.0618838 0.0618838 0.0618838 0.0618838 0.0198316 0.0198316 0.0198316 0.0198316 0.0112438 0.0112438 0.0112438 0.0112438 0.0578477 0.0578477 0.0578477 0.0578477 0.0481218 0.0481218 0.0481218 0.0481218 0.0198316 0.0198316 0.0198316 0.0198316 0.0578477 0.0578477 0.0578477 0.0578477 0.0112438 0.0112438 0.0112438 0.0112438 0.0481218 0.0481218 0.0481218 0.0481218 0.0343529 0.0343529 0.0343529 0.0343529 0.0491594 0.0491594 0.0491594 0.0491594 0.0491594 0.0491594 0.0491594 0.0491594 0.0344806 0.0344806 0.0344806 0.0344806 0.0543105 0.0543105 0.0543105 0.0543105 0.0479985 0.0479985 0.0479985 0.0479985 0.00189636 0.00189636 0.00189636 0.00189636 0.000813225 0.000813225 0.000813225 0.000813225 0.0543105 0.0543105 0.0543105 0.0543105 0.00189636 0.00189636 0.00189636 0.00189636 0.0479985 0.0479985 0.0479985 0.0479985 0.000813225 0.000813225 0.000813225 0.000813225 0.00308305 0.00308305 0.00308305 0.00308305 0.0496002 0.0496002 0.0496002 0.0496002 0.000849078 0.000849078 0.000849078 0.000849078 0.0673164 0.0673164 0.0673164 0.0673164 0.0502366 0.0502366 0.0502366 0.0502366 0.0188969 0.0188969 0.0188969 0.0188969 0.068009 0.068009 0.068009 0.068009 0.0212231 0.0212231 0.0212231 0.0212231 0.00308305 0.00308305 0.00308305 0.00308305 0.000849078 0.000849078 0.000849078 0.000849078 0.0496002 0.0496002 0.0496002 0.0496002 0.0673164 0.0673164 0.0673164 0.0673164 0.0502366 0.0502366 0.0502366 0.0502366 0.068009 0.068009 0.068009 0.068009 0.0188969 0.0188969 0.0188969 0.0188969 0.0212231 0.0212231 0.0212231 0.0212231 0.00136658 0.00136658 0.00136658 0.00136658 0.0905159 0.0905159 0.0905159 0.0905159 0.00521472 0.00521472 0.00521472 0.00521472 0.136784 0.136784 0.136784 0.136784 0.00136658 0.00136658 0.00136658 0.00136658 0.00521472 0.00521472 0.00521472 0.00521472 0.0905159 0.0905159 0.0905159 0.0905159 0.136784 0.136784 0.136784 0.136784 0.0922461 0.0922461 0.0922461 0.0922461 0.141602 0.141602 0.141602 0.141602 0.141602 0.141602 0.141602 0.141602 0.0990386 0.0990386 0.0990386 0.0990386 0.091871 0.091871 0.091871 0.091871 0.0218076 0.0218076 0.0218076 0.0218076 0.143089 0.143089 0.143089 0.143089 0.0349561 0.0349561 0.0349561 0.0349561 0.114346 0.114346 0.114346 0.114346 0.0398435 0.0398435 0.0398435 0.0398435 0.026839 0.026839 0.026839 0.026839 0.0290428 0.0290428 0.0290428 0.0290428 0.0313516 0.0313516 0.0313516 0.0313516 0.0263519 0.0263519 0.0263519 0.0263519 0.0282246 0.0282246 0.0282246 0.0282246 0.0266725 0.0266725 0.0266725 0.0266725 0.091871 0.091871 0.091871 0.091871 0.143089 0.143089 0.143089 0.143089 0.0218076 0.0218076 0.0218076 0.0218076 0.0349561 0.0349561 0.0349561 0.0349561 0.114346 0.114346 0.114346 0.114346 0.026839 0.026839 0.026839 0.026839 0.0398435 0.0398435 0.0398435 0.0398435 0.0290428 0.0290428 0.0290428 0.0290428 0.0313516 0.0313516 0.0313516 0.0313516 0.0282246 0.0282246 0.0282246 0.0282246 0.0263519 0.0263519 0.0263519 0.0263519 0.0266725 0.0266725 0.0266725 0.0266725 0.0230227 0.0230227 0.0230227 0.0230227 0.0277482 0.0277482 0.0277482 0.0277482 0.0277482 0.0277482 0.0277482 0.0277482 0.0305206 0.0305206 0.0305206 0.0305206 0.0309652 0.0309652 0.0309652 0.0309652 0.0292059 0.0292059 0.0292059 0.0292059 0.0345114 0.0345114 0.0345114 0.0345114 0.0330247 0.0330247 0.0330247 0.0330247 0.0309652 0.0309652 0.0309652 0.0309652 0.0345114 0.0345114 0.0345114 0.0345114 0.0292059 0.0292059 0.0292059 0.0292059 0.0330247 0.0330247 0.0330247 0.0330247 0.0389172 0.0389172 0.0389172 0.0389172 0.0373326 0.0373326 0.0373326 0.0373326 0.0373326 0.0373326 0.0373326 0.0373326 0.0329882 0.0329882 0.0329882 0.0329882 
