# vtk DataFile Version 3.0
#This file was generated by the deal.II library on 2020/3/18 at 17:32:13
ASCII
DATASET UNSTRUCTURED_GRID

POINTS 256 double
-1 -1 0
-0.75 -1 0
-1 -0.75 0
-0.75 -0.75 0
-0.75 -1 0
-0.5 -1 0
-0.75 -0.75 0
-0.5 -0.75 0
-1 -0.75 0
-0.75 -0.75 0
-1 -0.5 0
-0.75 -0.5 0
-0.75 -0.75 0
-0.5 -0.75 0
-0.75 -0.5 0
-0.5 -0.5 0
-0.5 -1 0
-0.25 -1 0
-0.5 -0.75 0
-0.25 -0.75 0
-0.25 -1 0
0 -1 0
-0.25 -0.75 0
0 -0.75 0
-0.5 -0.75 0
-0.25 -0.75 0
-0.5 -0.5 0
-0.25 -0.5 0
-0.25 -0.75 0
0 -0.75 0
-0.25 -0.5 0
0 -0.5 0
-1 -0.5 0
-0.75 -0.5 0
-1 -0.25 0
-0.75 -0.25 0
-0.75 -0.5 0
-0.5 -0.5 0
-0.75 -0.25 0
-0.5 -0.25 0
-1 -0.25 0
-0.75 -0.25 0
-1 0 0
-0.75 0 0
-0.75 -0.25 0
-0.5 -0.25 0
-0.75 0 0
-0.5 0 0
-0.5 -0.5 0
-0.25 -0.5 0
-0.5 -0.25 0
-0.25 -0.25 0
-0.25 -0.5 0
0 -0.5 0
-0.25 -0.25 0
0 -0.25 0
-0.5 -0.25 0
-0.25 -0.25 0
-0.5 0 0
-0.25 0 0
-0.25 -0.25 0
0 -0.25 0
-0.25 0 0
0 0 0
0 -1 0
0.25 -1 0
0 -0.75 0
0.25 -0.75 0
0.25 -1 0
0.5 -1 0
0.25 -0.75 0
0.5 -0.75 0
0 -0.75 0
0.25 -0.75 0
0 -0.5 0
0.25 -0.5 0
0.25 -0.75 0
0.5 -0.75 0
0.25 -0.5 0
0.5 -0.5 0
0.5 -1 0
0.75 -1 0
0.5 -0.75 0
0.75 -0.75 0
0.75 -1 0
1 -1 0
0.75 -0.75 0
1 -0.75 0
0.5 -0.75 0
0.75 -0.75 0
0.5 -0.5 0
0.75 -0.5 0
0.75 -0.75 0
1 -0.75 0
0.75 -0.5 0
1 -0.5 0
0 -0.5 0
0.25 -0.5 0
0 -0.25 0
0.25 -0.25 0
0.25 -0.5 0
0.5 -0.5 0
0.25 -0.25 0
0.5 -0.25 0
0 -0.25 0
0.25 -0.25 0
0 0 0
0.25 0 0
0.25 -0.25 0
0.5 -0.25 0
0.25 0 0
0.5 0 0
0.5 -0.5 0
0.75 -0.5 0
0.5 -0.25 0
0.75 -0.25 0
0.75 -0.5 0
1 -0.5 0
0.75 -0.25 0
1 -0.25 0
0.5 -0.25 0
0.75 -0.25 0
0.5 0 0
0.75 0 0
0.75 -0.25 0
1 -0.25 0
0.75 0 0
1 0 0
-1 0 0
-0.75 0 0
-1 0.25 0
-0.75 0.25 0
-0.75 0 0
-0.5 0 0
-0.75 0.25 0
-0.5 0.25 0
-1 0.25 0
-0.75 0.25 0
-1 0.5 0
-0.75 0.5 0
-0.75 0.25 0
-0.5 0.25 0
-0.75 0.5 0
-0.5 0.5 0
-0.5 0 0
-0.25 0 0
-0.5 0.25 0
-0.25 0.25 0
-0.25 0 0
0 0 0
-0.25 0.25 0
0 0.25 0
-0.5 0.25 0
-0.25 0.25 0
-0.5 0.5 0
-0.25 0.5 0
-0.25 0.25 0
0 0.25 0
-0.25 0.5 0
0 0.5 0
-1 0.5 0
-0.75 0.5 0
-1 0.75 0
-0.75 0.75 0
-0.75 0.5 0
-0.5 0.5 0
-0.75 0.75 0
-0.5 0.75 0
-1 0.75 0
-0.75 0.75 0
-1 1 0
-0.75 1 0
-0.75 0.75 0
-0.5 0.75 0
-0.75 1 0
-0.5 1 0
-0.5 0.5 0
-0.25 0.5 0
-0.5 0.75 0
-0.25 0.75 0
-0.25 0.5 0
0 0.5 0
-0.25 0.75 0
0 0.75 0
-0.5 0.75 0
-0.25 0.75 0
-0.5 1 0
-0.25 1 0
-0.25 0.75 0
0 0.75 0
-0.25 1 0
0 1 0
0 0 0
0.25 0 0
0 0.25 0
0.25 0.25 0
0.25 0 0
0.5 0 0
0.25 0.25 0
0.5 0.25 0
0 0.25 0
0.25 0.25 0
0 0.5 0
0.25 0.5 0
0.25 0.25 0
0.5 0.25 0
0.25 0.5 0
0.5 0.5 0
0.5 0 0
0.75 0 0
0.5 0.25 0
0.75 0.25 0
0.75 0 0
1 0 0
0.75 0.25 0
1 0.25 0
0.5 0.25 0
0.75 0.25 0
0.5 0.5 0
0.75 0.5 0
0.75 0.25 0
1 0.25 0
0.75 0.5 0
1 0.5 0
0 0.5 0
0.25 0.5 0
0 0.75 0
0.25 0.75 0
0.25 0.5 0
0.5 0.5 0
0.25 0.75 0
0.5 0.75 0
0 0.75 0
0.25 0.75 0
0 1 0
0.25 1 0
0.25 0.75 0
0.5 0.75 0
0.25 1 0
0.5 1 0
0.5 0.5 0
0.75 0.5 0
0.5 0.75 0
0.75 0.75 0
0.75 0.5 0
1 0.5 0
0.75 0.75 0
1 0.75 0
0.5 0.75 0
0.75 0.75 0
0.5 1 0
0.75 1 0
0.75 0.75 0
1 0.75 0
0.75 1 0
1 1 0

CELLS 64 320
4	0	1	3	2
4	4	5	7	6
4	8	9	11	10
4	12	13	15	14
4	16	17	19	18
4	20	21	23	22
4	24	25	27	26
4	28	29	31	30
4	32	33	35	34
4	36	37	39	38
4	40	41	43	42
4	44	45	47	46
4	48	49	51	50
4	52	53	55	54
4	56	57	59	58
4	60	61	63	62
4	64	65	67	66
4	68	69	71	70
4	72	73	75	74
4	76	77	79	78
4	80	81	83	82
4	84	85	87	86
4	88	89	91	90
4	92	93	95	94
4	96	97	99	98
4	100	101	103	102
4	104	105	107	106
4	108	109	111	110
4	112	113	115	114
4	116	117	119	118
4	120	121	123	122
4	124	125	127	126
4	128	129	131	130
4	132	133	135	134
4	136	137	139	138
4	140	141	143	142
4	144	145	147	146
4	148	149	151	150
4	152	153	155	154
4	156	157	159	158
4	160	161	163	162
4	164	165	167	166
4	168	169	171	170
4	172	173	175	174
4	176	177	179	178
4	180	181	183	182
4	184	185	187	186
4	188	189	191	190
4	192	193	195	194
4	196	197	199	198
4	200	201	203	202
4	204	205	207	206
4	208	209	211	210
4	212	213	215	214
4	216	217	219	218
4	220	221	223	222
4	224	225	227	226
4	228	229	231	230
4	232	233	235	234
4	236	237	239	238
4	240	241	243	242
4	244	245	247	246
4	248	249	251	250
4	252	253	255	254

CELL_TYPES 64
 9 9 9 9 9 9 9 9 9 9 9 9 9 9 9 9 9 9 9 9 9 9 9 9 9 9 9 9 9 9 9 9 9 9 9 9 9 9 9 9 9 9 9 9 9 9 9 9 9 9 9 9 9 9 9 9 9 9 9 9 9 9 9 9
POINT_DATA 256
SCALARS solution double 1
LOOKUP_TABLE default
0.135335 0.173774 0.173774 0.31922 0.173774 0.22313 0.31922 0.475883 0.173774 0.31922 0.22313 0.475883 0.31922 0.475883 0.475883 0.757397 0.22313 0.286505 0.475883 0.604875 0.286505 0.367879 0.604875 0.698201 0.475883 0.604875 0.757397 1.07484 0.604875 0.698201 1.07484 1.09456 0.22313 0.475883 0.286505 0.604875 0.475883 0.757397 0.604875 1.07484 0.286505 0.604875 0.367879 0.698201 0.604875 1.07484 0.698201 1.09456 0.757397 1.07484 1.07484 1.09037 1.07484 1.09456 1.09037 1.12081 1.07484 1.09037 1.09456 1.12081 1.09037 1.12081 1.12081 1.15471 0.367879 0.472367 0.698201 0.755927 0.472367 0.606531 0.755927 0.850982 0.698201 0.755927 1.09456 1.10764 0.755927 0.850982 1.10764 1.07909 0.606531 0.778801 0.850982 1.01909 0.778801 1 1.01909 1.28403 0.850982 1.01909 1.07909 1.28352 1.01909 1.28403 1.28352 1.64872 1.09456 1.10764 1.12081 1.14872 1.10764 1.07909 1.14872 1.189 1.12081 1.14872 1.15471 1.18958 1.14872 1.189 1.18958 1.22357 1.07909 1.28352 1.189 1.56677 1.28352 1.64872 1.56677 2.117 1.189 1.56677 1.22357 1.89971 1.56677 2.117 1.89971 2.71828 0.367879 0.698201 0.472367 0.755927 0.698201 1.09456 0.755927 1.10764 0.472367 0.755927 0.606531 0.850982 0.755927 1.10764 0.850982 1.07909 1.09456 1.12081 1.10764 1.14872 1.12081 1.15471 1.14872 1.18958 1.10764 1.14872 1.07909 1.189 1.14872 1.18958 1.189 1.22357 0.606531 0.850982 0.778801 1.01909 0.850982 1.07909 1.01909 1.28352 0.778801 1.01909 1 1.28403 1.01909 1.28352 1.28403 1.64872 1.07909 1.189 1.28352 1.56677 1.189 1.22357 1.56677 1.89971 1.28352 1.56677 1.64872 2.117 1.56677 1.89971 2.117 2.71828 1.15471 1.18958 1.18958 1.24806 1.18958 1.22357 1.24806 1.26649 1.18958 1.24806 1.22357 1.26649 1.24806 1.26649 1.26649 2.14975 1.22357 1.89971 1.26649 2.42846 1.89971 2.71828 2.42846 3.49034 1.26649 2.42846 2.14975 3.22784 2.42846 3.49034 3.22784 4.48169 1.22357 1.26649 1.89971 2.42846 1.26649 2.14975 2.42846 3.22784 1.89971 2.42846 2.71828 3.49034 2.42846 3.22784 3.49034 4.48169 2.14975 3.22784 3.22784 4.3461 3.22784 4.48169 4.3461 5.7546 3.22784 4.3461 4.48169 5.7546 4.3461 5.7546 5.7546 7.38906 
SCALARS L2_error double 1
LOOKUP_TABLE default
0.00837231 0.00837231 0.00837231 0.00837231 0.0214824 0.0214824 0.0214824 0.0214824 0.0214824 0.0214824 0.0214824 0.0214824 0.0568401 0.0568401 0.0568401 0.0568401 0.0315048 0.0315048 0.0315048 0.0315048 0.0342649 0.0342649 0.0342649 0.0342649 0.0924655 0.0924655 0.0924655 0.0924655 0.101032 0.101032 0.101032 0.101032 0.0315048 0.0315048 0.0315048 0.0315048 0.0924655 0.0924655 0.0924655 0.0924655 0.0342649 0.0342649 0.0342649 0.0342649 0.101032 0.101032 0.101032 0.101032 0.131406 0.131406 0.131406 0.131406 0.12208 0.12208 0.12208 0.12208 0.12208 0.12208 0.12208 0.12208 0.0863349 0.0863349 0.0863349 0.0863349 0.0283619 0.0283619 0.0283619 0.0283619 0.017709 0.017709 0.017709 0.017709 0.0782379 0.0782379 0.0782379 0.0782379 0.0436995 0.0436995 0.0436995 0.0436995 0.00874175 0.00874175 0.00874175 0.00874175 0.00404627 0.00404627 0.00404627 0.00404627 0.0140782 0.0140782 0.0140782 0.0140782 0.00473232 0.00473232 0.00473232 0.00473232 0.0855202 0.0855202 0.0855202 0.0855202 0.0382732 0.0382732 0.0382732 0.0382732 0.0431791 0.0431791 0.0431791 0.0431791 0.0389003 0.0389003 0.0389003 0.0389003 0.0100043 0.0100043 0.0100043 0.0100043 0.00479845 0.00479845 0.00479845 0.00479845 0.050592 0.050592 0.050592 0.050592 0.0180948 0.0180948 0.0180948 0.0180948 0.0283619 0.0283619 0.0283619 0.0283619 0.0782379 0.0782379 0.0782379 0.0782379 0.017709 0.017709 0.017709 0.017709 0.0436995 0.0436995 0.0436995 0.0436995 0.0855202 0.0855202 0.0855202 0.0855202 0.0431791 0.0431791 0.0431791 0.0431791 0.0382732 0.0382732 0.0382732 0.0382732 0.0389003 0.0389003 0.0389003 0.0389003 0.00874175 0.00874175 0.00874175 0.00874175 0.0140782 0.0140782 0.0140782 0.0140782 0.00404627 0.00404627 0.00404627 0.00404627 0.00473232 0.00473232 0.00473232 0.00473232 0.0100043 0.0100043 0.0100043 0.0100043 0.050592 0.050592 0.050592 0.050592 0.00479845 0.00479845 0.00479845 0.00479845 0.0180948 0.0180948 0.0180948 0.0180948 0.0368936 0.0368936 0.0368936 0.0368936 0.113086 0.113086 0.113086 0.113086 0.113086 0.113086 0.113086 0.113086 0.162276 0.162276 0.162276 0.162276 0.111189 0.111189 0.111189 0.111189 0.031024 0.031024 0.031024 0.031024 0.120986 0.120986 0.120986 0.120986 0.0326703 0.0326703 0.0326703 0.0326703 0.111189 0.111189 0.111189 0.111189 0.120986 0.120986 0.120986 0.120986 0.031024 0.031024 0.031024 0.031024 0.0326703 0.0326703 0.0326703 0.0326703 0.0715162 0.0715162 0.0715162 0.0715162 0.0209808 0.0209808 0.0209808 0.0209808 0.0209808 0.0209808 0.0209808 0.0209808 0.0116547 0.0116547 0.0116547 0.0116547 
SCALARS H1_error double 1
LOOKUP_TABLE default
0.0793073 0.0793073 0.0793073 0.0793073 0.156859 0.156859 0.156859 0.156859 0.156859 0.156859 0.156859 0.156859 0.220134 0.220134 0.220134 0.220134 0.218216 0.218216 0.218216 0.218216 0.234704 0.234704 0.234704 0.234704 0.332494 0.332494 0.332494 0.332494 0.338943 0.338943 0.338943 0.338943 0.218216 0.218216 0.218216 0.218216 0.332494 0.332494 0.332494 0.332494 0.234704 0.234704 0.234704 0.234704 0.338943 0.338943 0.338943 0.338943 0.200757 0.200757 0.200757 0.200757 0.220886 0.220886 0.220886 0.220886 0.220886 0.220886 0.220886 0.220886 0.248381 0.248381 0.248381 0.248381 0.196902 0.196902 0.196902 0.196902 0.124218 0.124218 0.124218 0.124218 0.265162 0.265162 0.265162 0.265162 0.206242 0.206242 0.206242 0.206242 0.0614376 0.0614376 0.0614376 0.0614376 0.0303918 0.0303918 0.0303918 0.0303918 0.0723267 0.0723267 0.0723267 0.0723267 0.0360715 0.0360715 0.0360715 0.0360715 0.254701 0.254701 0.254701 0.254701 0.30542 0.30542 0.30542 0.30542 0.311725 0.311725 0.311725 0.311725 0.40817 0.40817 0.40817 0.40817 0.139726 0.139726 0.139726 0.139726 0.0793645 0.0793645 0.0793645 0.0793645 0.276652 0.276652 0.276652 0.276652 0.183803 0.183803 0.183803 0.183803 0.196902 0.196902 0.196902 0.196902 0.265162 0.265162 0.265162 0.265162 0.124218 0.124218 0.124218 0.124218 0.206242 0.206242 0.206242 0.206242 0.254701 0.254701 0.254701 0.254701 0.311725 0.311725 0.311725 0.311725 0.30542 0.30542 0.30542 0.30542 0.40817 0.40817 0.40817 0.40817 0.0614376 0.0614376 0.0614376 0.0614376 0.0723267 0.0723267 0.0723267 0.0723267 0.0303918 0.0303918 0.0303918 0.0303918 0.0360715 0.0360715 0.0360715 0.0360715 0.139726 0.139726 0.139726 0.139726 0.276652 0.276652 0.276652 0.276652 0.0793645 0.0793645 0.0793645 0.0793645 0.183803 0.183803 0.183803 0.183803 0.394147 0.394147 0.394147 0.394147 0.547551 0.547551 0.547551 0.547551 0.547551 0.547551 0.547551 0.547551 0.363001 0.363001 0.363001 0.363001 0.496486 0.496486 0.496486 0.496486 0.271857 0.271857 0.271857 0.271857 0.496221 0.496221 0.496221 0.496221 0.2973 0.2973 0.2973 0.2973 0.496486 0.496486 0.496486 0.496486 0.496221 0.496221 0.496221 0.496221 0.271857 0.271857 0.271857 0.271857 0.2973 0.2973 0.2973 0.2973 0.340908 0.340908 0.340908 0.340908 0.25137 0.25137 0.25137 0.25137 0.25137 0.25137 0.25137 0.25137 0.190857 0.190857 0.190857 0.190857 
SCALARS error_estimator double 1
LOOKUP_TABLE default
0.00379958 0.00379958 0.00379958 0.00379958 0.00659969 0.00659969 0.00659969 0.00659969 0.00659969 0.00659969 0.00659969 0.00659969 0.0095841 0.0095841 0.0095841 0.0095841 0.0241521 0.0241521 0.0241521 0.0241521 0.0277792 0.0277792 0.0277792 0.0277792 0.0794347 0.0794347 0.0794347 0.0794347 0.113091 0.113091 0.113091 0.113091 0.0241521 0.0241521 0.0241521 0.0241521 0.0794347 0.0794347 0.0794347 0.0794347 0.0277792 0.0277792 0.0277792 0.0277792 0.113091 0.113091 0.113091 0.113091 0.104109 0.104109 0.104109 0.104109 0.10825 0.10825 0.10825 0.10825 0.10825 0.10825 0.10825 0.10825 0.00396401 0.00396401 0.00396401 0.00396401 0.0187333 0.0187333 0.0187333 0.0187333 0.0181399 0.0181399 0.0181399 0.0181399 0.0846798 0.0846798 0.0846798 0.0846798 0.0670939 0.0670939 0.0670939 0.0670939 0.0228294 0.0228294 0.0228294 0.0228294 0.0223989 0.0223989 0.0223989 0.0223989 0.0524356 0.0524356 0.0524356 0.0524356 0.0378307 0.0378307 0.0378307 0.0378307 0.0829064 0.0829064 0.0829064 0.0829064 0.0887538 0.0887538 0.0887538 0.0887538 0.00323729 0.00323729 0.00323729 0.00323729 0.121319 0.121319 0.121319 0.121319 0.0825126 0.0825126 0.0825126 0.0825126 0.0491772 0.0491772 0.0491772 0.0491772 0.13012 0.13012 0.13012 0.13012 0.0630356 0.0630356 0.0630356 0.0630356 0.0187333 0.0187333 0.0187333 0.0187333 0.0846798 0.0846798 0.0846798 0.0846798 0.0181399 0.0181399 0.0181399 0.0181399 0.0670939 0.0670939 0.0670939 0.0670939 0.0829064 0.0829064 0.0829064 0.0829064 0.00323729 0.00323729 0.00323729 0.00323729 0.0887538 0.0887538 0.0887538 0.0887538 0.121319 0.121319 0.121319 0.121319 0.0228294 0.0228294 0.0228294 0.0228294 0.0524356 0.0524356 0.0524356 0.0524356 0.0223989 0.0223989 0.0223989 0.0223989 0.0378307 0.0378307 0.0378307 0.0378307 0.0825126 0.0825126 0.0825126 0.0825126 0.13012 0.13012 0.13012 0.13012 0.0491772 0.0491772 0.0491772 0.0491772 0.0630356 0.0630356 0.0630356 0.0630356 0.00879458 0.00879458 0.00879458 0.00879458 0.247975 0.247975 0.247975 0.247975 0.247975 0.247975 0.247975 0.247975 0.296809 0.296809 0.296809 0.296809 0.262843 0.262843 0.262843 0.262843 0.0764635 0.0764635 0.0764635 0.0764635 0.234531 0.234531 0.234531 0.234531 0.0965666 0.0965666 0.0965666 0.0965666 0.262843 0.262843 0.262843 0.262843 0.234531 0.234531 0.234531 0.234531 0.0764635 0.0764635 0.0764635 0.0764635 0.0965666 0.0965666 0.0965666 0.0965666 0.120221 0.120221 0.120221 0.120221 0.12192 0.12192 0.12192 0.12192 0.12192 0.12192 0.12192 0.12192 0.112098 0.112098 0.112098 0.112098 
