# vtk DataFile Version 3.0
#This file was generated by the deal.II library on 2020/3/18 at 14:21:33
ASCII
DATASET UNSTRUCTURED_GRID

POINTS 8608 double
-1 -1 0
-0.75 -1 0
-1 -0.75 0
-0.75 -0.75 0
-0.75 -1 0
-0.5 -1 0
-0.75 -0.75 0
-0.5 -0.75 0
-1 -0.75 0
-0.75 -0.75 0
-1 -0.5 0
-0.75 -0.5 0
-0.75 -0.75 0
-0.5 -0.75 0
-0.75 -0.5 0
-0.5 -0.5 0
-0.5 -1 0
-0.25 -1 0
-0.5 -0.75 0
-0.25 -0.75 0
-0.25 -1 0
0 -1 0
-0.25 -0.75 0
0 -0.75 0
-0.5 -0.75 0
-0.25 -0.75 0
-0.5 -0.5 0
-0.25 -0.5 0
-0.25 -0.75 0
0 -0.75 0
-0.25 -0.5 0
0 -0.5 0
-1 -0.5 0
-0.75 -0.5 0
-1 -0.25 0
-0.75 -0.25 0
-0.75 -0.5 0
-0.5 -0.5 0
-0.75 -0.25 0
-0.5 -0.25 0
-0.5 -0.5 0
-0.25 -0.5 0
-0.5 -0.25 0
-0.25 -0.25 0
-0.25 -0.5 0
0 -0.5 0
-0.25 -0.25 0
0 -0.25 0
0 -1 0
0.25 -1 0
0 -0.75 0
0.25 -0.75 0
0.25 -1 0
0.5 -1 0
0.25 -0.75 0
0.5 -0.75 0
0 -0.75 0
0.25 -0.75 0
0 -0.5 0
0.25 -0.5 0
0.25 -0.75 0
0.5 -0.75 0
0.25 -0.5 0
0.5 -0.5 0
0.5 -1 0
0.75 -1 0
0.5 -0.75 0
0.75 -0.75 0
0.75 -1 0
1 -1 0
0.75 -0.75 0
1 -0.75 0
0.5 -0.75 0
0.75 -0.75 0
0.5 -0.5 0
0.75 -0.5 0
0.75 -0.75 0
1 -0.75 0
0.75 -0.5 0
1 -0.5 0
0 -0.5 0
0.25 -0.5 0
0 -0.25 0
0.25 -0.25 0
0.25 -0.5 0
0.5 -0.5 0
0.25 -0.25 0
0.5 -0.25 0
0.5 -0.5 0
0.75 -0.5 0
0.5 -0.25 0
0.75 -0.25 0
0.75 -0.5 0
1 -0.5 0
0.75 -0.25 0
1 -0.25 0
-1 -0.25 0
-0.875 -0.25 0
-1 -0.125 0
-0.875 -0.125 0
-0.875 -0.25 0
-0.75 -0.25 0
-0.875 -0.125 0
-0.75 -0.125 0
-0.75 -0.25 0
-0.625 -0.25 0
-0.75 -0.125 0
-0.625 -0.125 0
-0.625 -0.25 0
-0.5 -0.25 0
-0.625 -0.125 0
-0.5 -0.125 0
-0.5 -0.25 0
-0.375 -0.25 0
-0.5 -0.125 0
-0.375 -0.125 0
-0.375 -0.25 0
-0.25 -0.25 0
-0.375 -0.125 0
-0.25 -0.125 0
-0.25 -0.25 0
-0.125 -0.25 0
-0.25 -0.125 0
-0.125 -0.125 0
-0.125 -0.25 0
0 -0.25 0
-0.125 -0.125 0
0 -0.125 0
0 -0.25 0
0.125 -0.25 0
0 -0.125 0
0.125 -0.125 0
0.125 -0.25 0
0.25 -0.25 0
0.125 -0.125 0
0.25 -0.125 0
0.25 -0.25 0
0.375 -0.25 0
0.25 -0.125 0
0.375 -0.125 0
0.375 -0.25 0
0.5 -0.25 0
0.375 -0.125 0
0.5 -0.125 0
0.5 -0.25 0
0.625 -0.25 0
0.5 -0.125 0
0.625 -0.125 0
0.625 -0.25 0
0.75 -0.25 0
0.625 -0.125 0
0.75 -0.125 0
0.75 -0.25 0
0.875 -0.25 0
0.75 -0.125 0
0.875 -0.125 0
0.875 -0.25 0
1 -0.25 0
0.875 -0.125 0
1 -0.125 0
-1 -0.125 0
-0.9375 -0.125 0
-1 -0.0625 0
-0.9375 -0.0625 0
-0.9375 -0.125 0
-0.875 -0.125 0
-0.9375 -0.0625 0
-0.875 -0.0625 0
-1 -0.0625 0
-0.9375 -0.0625 0
-1 0 0
-0.9375 0 0
-0.9375 -0.0625 0
-0.875 -0.0625 0
-0.9375 0 0
-0.875 0 0
-0.875 -0.125 0
-0.8125 -0.125 0
-0.875 -0.0625 0
-0.8125 -0.0625 0
-0.8125 -0.125 0
-0.75 -0.125 0
-0.8125 -0.0625 0
-0.75 -0.0625 0
-0.875 -0.0625 0
-0.8125 -0.0625 0
-0.875 0 0
-0.8125 0 0
-0.8125 -0.0625 0
-0.75 -0.0625 0
-0.8125 0 0
-0.75 0 0
-0.75 -0.125 0
-0.6875 -0.125 0
-0.75 -0.0625 0
-0.6875 -0.0625 0
-0.6875 -0.125 0
-0.625 -0.125 0
-0.6875 -0.0625 0
-0.625 -0.0625 0
-0.75 -0.0625 0
-0.6875 -0.0625 0
-0.75 0 0
-0.6875 0 0
-0.6875 -0.0625 0
-0.625 -0.0625 0
-0.6875 0 0
-0.625 0 0
-0.625 -0.125 0
-0.5625 -0.125 0
-0.625 -0.0625 0
-0.5625 -0.0625 0
-0.5625 -0.125 0
-0.5 -0.125 0
-0.5625 -0.0625 0
-0.5 -0.0625 0
-0.625 -0.0625 0
-0.5625 -0.0625 0
-0.625 0 0
-0.5625 0 0
-0.5625 -0.0625 0
-0.5 -0.0625 0
-0.5625 0 0
-0.5 0 0
-0.5 -0.125 0
-0.4375 -0.125 0
-0.5 -0.0625 0
-0.4375 -0.0625 0
-0.4375 -0.125 0
-0.375 -0.125 0
-0.4375 -0.0625 0
-0.375 -0.0625 0
-0.5 -0.0625 0
-0.4375 -0.0625 0
-0.5 0 0
-0.4375 0 0
-0.4375 -0.0625 0
-0.375 -0.0625 0
-0.4375 0 0
-0.375 0 0
-0.375 -0.125 0
-0.3125 -0.125 0
-0.375 -0.0625 0
-0.3125 -0.0625 0
-0.3125 -0.125 0
-0.25 -0.125 0
-0.3125 -0.0625 0
-0.25 -0.0625 0
-0.375 -0.0625 0
-0.3125 -0.0625 0
-0.375 0 0
-0.3125 0 0
-0.3125 -0.0625 0
-0.25 -0.0625 0
-0.3125 0 0
-0.25 0 0
-0.25 -0.125 0
-0.1875 -0.125 0
-0.25 -0.0625 0
-0.1875 -0.0625 0
-0.1875 -0.125 0
-0.125 -0.125 0
-0.1875 -0.0625 0
-0.125 -0.0625 0
-0.25 -0.0625 0
-0.1875 -0.0625 0
-0.25 0 0
-0.1875 0 0
-0.1875 -0.0625 0
-0.125 -0.0625 0
-0.1875 0 0
-0.125 0 0
-0.125 -0.125 0
-0.0625 -0.125 0
-0.125 -0.0625 0
-0.0625 -0.0625 0
-0.0625 -0.125 0
0 -0.125 0
-0.0625 -0.0625 0
0 -0.0625 0
-0.125 -0.0625 0
-0.0625 -0.0625 0
-0.125 0 0
-0.0625 0 0
-0.0625 -0.0625 0
0 -0.0625 0
-0.0625 0 0
0 0 0
0 -0.125 0
0.0625 -0.125 0
0 -0.0625 0
0.0625 -0.0625 0
0.0625 -0.125 0
0.125 -0.125 0
0.0625 -0.0625 0
0.125 -0.0625 0
0 -0.0625 0
0.0625 -0.0625 0
0 0 0
0.0625 0 0
0.0625 -0.0625 0
0.125 -0.0625 0
0.0625 0 0
0.125 0 0
0.125 -0.125 0
0.1875 -0.125 0
0.125 -0.0625 0
0.1875 -0.0625 0
0.1875 -0.125 0
0.25 -0.125 0
0.1875 -0.0625 0
0.25 -0.0625 0
0.125 -0.0625 0
0.1875 -0.0625 0
0.125 0 0
0.1875 0 0
0.1875 -0.0625 0
0.25 -0.0625 0
0.1875 0 0
0.25 0 0
0.25 -0.125 0
0.3125 -0.125 0
0.25 -0.0625 0
0.3125 -0.0625 0
0.3125 -0.125 0
0.375 -0.125 0
0.3125 -0.0625 0
0.375 -0.0625 0
0.25 -0.0625 0
0.3125 -0.0625 0
0.25 0 0
0.3125 0 0
0.3125 -0.0625 0
0.375 -0.0625 0
0.3125 0 0
0.375 0 0
0.375 -0.125 0
0.4375 -0.125 0
0.375 -0.0625 0
0.4375 -0.0625 0
0.4375 -0.125 0
0.5 -0.125 0
0.4375 -0.0625 0
0.5 -0.0625 0
0.375 -0.0625 0
0.4375 -0.0625 0
0.375 0 0
0.4375 0 0
0.4375 -0.0625 0
0.5 -0.0625 0
0.4375 0 0
0.5 0 0
0.5 -0.125 0
0.5625 -0.125 0
0.5 -0.0625 0
0.5625 -0.0625 0
0.5625 -0.125 0
0.625 -0.125 0
0.5625 -0.0625 0
0.625 -0.0625 0
0.5 -0.0625 0
0.5625 -0.0625 0
0.5 0 0
0.5625 0 0
0.5625 -0.0625 0
0.625 -0.0625 0
0.5625 0 0
0.625 0 0
0.625 -0.125 0
0.6875 -0.125 0
0.625 -0.0625 0
0.6875 -0.0625 0
0.6875 -0.125 0
0.75 -0.125 0
0.6875 -0.0625 0
0.75 -0.0625 0
0.625 -0.0625 0
0.6875 -0.0625 0
0.625 0 0
0.6875 0 0
0.6875 -0.0625 0
0.75 -0.0625 0
0.6875 0 0
0.75 0 0
0.75 -0.125 0
0.8125 -0.125 0
0.75 -0.0625 0
0.8125 -0.0625 0
0.8125 -0.125 0
0.875 -0.125 0
0.8125 -0.0625 0
0.875 -0.0625 0
0.75 -0.0625 0
0.8125 -0.0625 0
0.75 0 0
0.8125 0 0
0.8125 -0.0625 0
0.875 -0.0625 0
0.8125 0 0
0.875 0 0
0.875 -0.125 0
0.9375 -0.125 0
0.875 -0.0625 0
0.9375 -0.0625 0
0.9375 -0.125 0
1 -0.125 0
0.9375 -0.0625 0
1 -0.0625 0
0.875 -0.0625 0
0.9375 -0.0625 0
0.875 0 0
0.9375 0 0
0.9375 -0.0625 0
1 -0.0625 0
0.9375 0 0
1 0 0
-1 0 0
-0.96875 0 0
-1 0.03125 0
-0.96875 0.03125 0
-0.96875 0 0
-0.9375 0 0
-0.96875 0.03125 0
-0.9375 0.03125 0
-1 0.03125 0
-0.96875 0.03125 0
-1 0.0625 0
-0.96875 0.0625 0
-0.96875 0.03125 0
-0.9375 0.03125 0
-0.96875 0.0625 0
-0.9375 0.0625 0
-0.9375 0 0
-0.90625 0 0
-0.9375 0.03125 0
-0.90625 0.03125 0
-0.90625 0 0
-0.875 0 0
-0.90625 0.03125 0
-0.875 0.03125 0
-0.9375 0.03125 0
-0.90625 0.03125 0
-0.9375 0.0625 0
-0.90625 0.0625 0
-0.90625 0.03125 0
-0.875 0.03125 0
-0.90625 0.0625 0
-0.875 0.0625 0
-1 0.0625 0
-0.96875 0.0625 0
-1 0.09375 0
-0.96875 0.09375 0
-0.96875 0.0625 0
-0.9375 0.0625 0
-0.96875 0.09375 0
-0.9375 0.09375 0
-1 0.09375 0
-0.96875 0.09375 0
-1 0.125 0
-0.96875 0.125 0
-0.96875 0.09375 0
-0.9375 0.09375 0
-0.96875 0.125 0
-0.9375 0.125 0
-0.9375 0.0625 0
-0.90625 0.0625 0
-0.9375 0.09375 0
-0.90625 0.09375 0
-0.90625 0.0625 0
-0.875 0.0625 0
-0.90625 0.09375 0
-0.875 0.09375 0
-0.9375 0.09375 0
-0.90625 0.09375 0
-0.9375 0.125 0
-0.90625 0.125 0
-0.90625 0.09375 0
-0.875 0.09375 0
-0.90625 0.125 0
-0.875 0.125 0
-0.875 0 0
-0.84375 0 0
-0.875 0.03125 0
-0.84375 0.03125 0
-0.84375 0 0
-0.8125 0 0
-0.84375 0.03125 0
-0.8125 0.03125 0
-0.875 0.03125 0
-0.84375 0.03125 0
-0.875 0.0625 0
-0.84375 0.0625 0
-0.84375 0.03125 0
-0.8125 0.03125 0
-0.84375 0.0625 0
-0.8125 0.0625 0
-0.8125 0 0
-0.78125 0 0
-0.8125 0.03125 0
-0.78125 0.03125 0
-0.78125 0 0
-0.75 0 0
-0.78125 0.03125 0
-0.75 0.03125 0
-0.8125 0.03125 0
-0.78125 0.03125 0
-0.8125 0.0625 0
-0.78125 0.0625 0
-0.78125 0.03125 0
-0.75 0.03125 0
-0.78125 0.0625 0
-0.75 0.0625 0
-0.875 0.0625 0
-0.84375 0.0625 0
-0.875 0.09375 0
-0.84375 0.09375 0
-0.84375 0.0625 0
-0.8125 0.0625 0
-0.84375 0.09375 0
-0.8125 0.09375 0
-0.875 0.09375 0
-0.84375 0.09375 0
-0.875 0.125 0
-0.84375 0.125 0
-0.84375 0.09375 0
-0.8125 0.09375 0
-0.84375 0.125 0
-0.8125 0.125 0
-0.8125 0.0625 0
-0.78125 0.0625 0
-0.8125 0.09375 0
-0.78125 0.09375 0
-0.78125 0.0625 0
-0.75 0.0625 0
-0.78125 0.09375 0
-0.75 0.09375 0
-0.8125 0.09375 0
-0.78125 0.09375 0
-0.8125 0.125 0
-0.78125 0.125 0
-0.78125 0.09375 0
-0.75 0.09375 0
-0.78125 0.125 0
-0.75 0.125 0
-1 0.125 0
-0.96875 0.125 0
-1 0.15625 0
-0.96875 0.15625 0
-0.96875 0.125 0
-0.9375 0.125 0
-0.96875 0.15625 0
-0.9375 0.15625 0
-1 0.15625 0
-0.96875 0.15625 0
-1 0.1875 0
-0.96875 0.1875 0
-0.96875 0.15625 0
-0.9375 0.15625 0
-0.96875 0.1875 0
-0.9375 0.1875 0
-0.9375 0.125 0
-0.90625 0.125 0
-0.9375 0.15625 0
-0.90625 0.15625 0
-0.90625 0.125 0
-0.875 0.125 0
-0.90625 0.15625 0
-0.875 0.15625 0
-0.9375 0.15625 0
-0.90625 0.15625 0
-0.9375 0.1875 0
-0.90625 0.1875 0
-0.90625 0.15625 0
-0.875 0.15625 0
-0.90625 0.1875 0
-0.875 0.1875 0
-1 0.1875 0
-0.96875 0.1875 0
-1 0.21875 0
-0.96875 0.21875 0
-0.96875 0.1875 0
-0.9375 0.1875 0
-0.96875 0.21875 0
-0.9375 0.21875 0
-1 0.21875 0
-0.96875 0.21875 0
-1 0.25 0
-0.96875 0.25 0
-0.96875 0.21875 0
-0.9375 0.21875 0
-0.96875 0.25 0
-0.9375 0.25 0
-0.9375 0.1875 0
-0.90625 0.1875 0
-0.9375 0.21875 0
-0.90625 0.21875 0
-0.90625 0.1875 0
-0.875 0.1875 0
-0.90625 0.21875 0
-0.875 0.21875 0
-0.9375 0.21875 0
-0.90625 0.21875 0
-0.9375 0.25 0
-0.90625 0.25 0
-0.90625 0.21875 0
-0.875 0.21875 0
-0.90625 0.25 0
-0.875 0.25 0
-0.875 0.125 0
-0.84375 0.125 0
-0.875 0.15625 0
-0.84375 0.15625 0
-0.84375 0.125 0
-0.8125 0.125 0
-0.84375 0.15625 0
-0.8125 0.15625 0
-0.875 0.15625 0
-0.84375 0.15625 0
-0.875 0.1875 0
-0.84375 0.1875 0
-0.84375 0.15625 0
-0.8125 0.15625 0
-0.84375 0.1875 0
-0.8125 0.1875 0
-0.8125 0.125 0
-0.78125 0.125 0
-0.8125 0.15625 0
-0.78125 0.15625 0
-0.78125 0.125 0
-0.75 0.125 0
-0.78125 0.15625 0
-0.75 0.15625 0
-0.8125 0.15625 0
-0.78125 0.15625 0
-0.8125 0.1875 0
-0.78125 0.1875 0
-0.78125 0.15625 0
-0.75 0.15625 0
-0.78125 0.1875 0
-0.75 0.1875 0
-0.875 0.1875 0
-0.84375 0.1875 0
-0.875 0.21875 0
-0.84375 0.21875 0
-0.84375 0.1875 0
-0.8125 0.1875 0
-0.84375 0.21875 0
-0.8125 0.21875 0
-0.875 0.21875 0
-0.84375 0.21875 0
-0.875 0.25 0
-0.84375 0.25 0
-0.84375 0.21875 0
-0.8125 0.21875 0
-0.84375 0.25 0
-0.8125 0.25 0
-0.8125 0.1875 0
[...]
POINT_DATA 8608
SCALARS solution double 1
LOOKUP_TABLE default
0.135335 0.173774 0.173774 0.223037 0.173774 0.22313 0.223037 0.286294 0.173774 0.223037 0.22313 0.286169 0.223037 0.286294 0.286169 0.367238 0.22313 0.286505 0.286294 0.367568 0.286505 0.367879 0.367568 0.471978 0.286294 0.367568 0.367238 0.471494 0.367568 0.471978 0.471494 0.605423 0.22313 0.286169 0.286505 0.366892 0.286169 0.367238 0.366892 0.471046 0.367238 0.471494 0.471046 0.604806 0.471494 0.605423 0.604806 0.77659 0.367879 0.472367 0.471978 0.606107 0.472367 0.606531 0.606107 0.778474 0.471978 0.606107 0.605423 0.777475 0.606107 0.778474 0.777475 0.998557 0.606531 0.778801 0.778474 0.999917 0.778801 1 0.999917 1.28403 0.778474 0.999917 0.998557 1.28315 0.999917 1.28403 1.28315 1.64872 0.605423 0.777475 0.77659 0.997198 0.777475 0.998557 0.997198 1.28058 0.998557 1.28315 1.28058 1.64448 1.28315 1.64872 1.64448 2.117 0.286505 0.326698 0.324652 0.367989 0.326698 0.366892 0.367989 0.417311 0.366892 0.418969 0.417311 0.472476 0.418969 0.471046 0.472476 0.53581 0.471046 0.537926 0.53581 0.606675 0.537926 0.604806 0.606675 0.687992 0.604806 0.690698 0.687992 0.778982 0.690698 0.77659 0.778982 0.883394 0.77659 0.886894 0.883394 1.00023 0.886894 0.997198 1.00023 1.1343 0.997198 1.13889 1.1343 1.28431 1.13889 1.28058 1.28431 1.45646 1.28058 1.46253 1.45646 1.64906 1.46253 1.64448 1.64906 1.8703 1.64448 1.88074 1.8703 2.11766 1.88074 2.117 2.11766 2.39888 0.324652 0.346321 0.345591 0.368089 0.346321 0.367989 0.368089 0.392029 0.345591 0.368089 0.367879 0.391736 0.368089 0.392029 0.391736 0.41714 0.367989 0.39265 0.392029 0.417341 0.39265 0.417311 0.417341 0.44439 0.392029 0.417341 0.41714 0.444149 0.417341 0.44439 0.444149 0.472846 0.417311 0.444893 0.44439 0.472954 0.444893 0.472476 0.472954 0.503541 0.44439 0.472954 0.472846 0.503385 0.472954 0.503541 0.503385 0.535863 0.472476 0.504143 0.503541 0.535955 0.504143 0.53581 0.535955 0.570655 0.503541 0.535955 0.535863 0.570456 0.535955 0.570655 0.570456 0.60725 0.53581 0.571242 0.570655 0.607317 0.571242 0.606675 0.607317 0.646586 0.570655 0.607317 0.60725 0.646432 0.607317 0.646586 0.646432 0.688113 0.606675 0.647334 0.646586 0.688199 0.647334 0.687992 0.688199 0.732748 0.646586 0.688199 0.688113 0.732517 0.688199 0.732748 0.732517 0.779749 0.687992 0.733487 0.732748 0.779816 0.733487 0.778982 0.779816 0.830232 0.732748 0.779816 0.779749 0.830048 0.779816 0.830232 0.830048 0.883558 0.778982 0.831188 0.830232 0.88366 0.831188 0.883394 0.88366 0.940857 0.830232 0.88366 0.883558 0.940564 0.88366 0.940857 0.940564 1.0012 0.883394 0.94181 0.940857 1.00129 0.94181 1.00023 1.00129 1.06602 0.940857 1.00129 1.0012 1.06578 1.00129 1.06602 1.06578 1.13448 1.00023 1.06726 1.06602 1.13462 1.06726 1.1343 1.13462 1.20805 1.06602 1.13462 1.13448 1.20766 1.13462 1.20805 1.20766 1.28551 1.1343 1.2093 1.20805 1.28564 1.2093 1.28431 1.28564 1.36875 1.20805 1.28564 1.28551 1.36842 1.28564 1.36875 1.36842 1.45661 1.28431 1.37038 1.36875 1.45681 1.37038 1.45646 1.45681 1.55109 1.36875 1.45681 1.45661 1.55056 1.45681 1.55109 1.55056 1.65048 1.45646 1.55276 1.55109 1.65069 1.55276 1.64906 1.65069 1.75739 1.55109 1.65069 1.65048 1.75689 1.65069 1.75739 1.75689 1.87008 1.64906 1.75968 1.75739 1.87045 1.75968 1.8703 1.87045 1.99145 1.75739 1.87045 1.87008 1.99063 1.87045 1.99145 1.99063 2.11881 1.8703 1.99398 1.99145 2.11919 1.99398 2.11766 2.11919 2.25571 1.99145 2.11919 2.11881 2.25518 2.11919 2.25571 2.25518 2.40007 2.11766 2.25827 2.25571 2.40004 2.25827 2.39888 2.40004 2.55359 2.25571 2.40004 2.40007 2.55413 2.40004 2.55359 2.55413 2.71828 0.367879 0.379808 0.379557 0.391711 0.379808 0.391736 0.391711 0.404242 0.379557 0.391711 0.391606 0.404124 0.391711 0.404242 0.404124 0.417029 0.391736 0.404438 0.404242 0.417122 0.404438 0.41714 0.417122 0.430444 0.404242 0.417122 0.417029 0.430336 0.417122 0.430444 0.430336 0.444052 0.391606 0.404124 0.404037 0.416937 0.404124 0.417029 0.416937 0.430242 0.404037 0.416937 0.416862 0.430162 0.416937 0.430242 0.430162 0.44388 0.417029 0.430336 0.430242 0.443962 0.430336 0.444052 0.443962 0.458111 0.430242 0.443962 0.44388 0.458028 0.443962 0.458111 0.458028 0.47262 0.41714 0.430645 0.430444 0.44414 0.430645 0.444149 0.44414 0.458305 0.430444 0.44414 0.444052 0.458201 0.44414 0.458305 0.458201 0.472788 0.444149 0.458498 0.458305 0.472866 0.458498 0.472846 0.472866 0.487928 0.458305 0.472866 0.472788 0.487835 0.472866 0.487928 0.487835 0.503349 0.444052 0.458201 0.458111 0.472702 0.458201 0.472788 0.472702 0.487751 0.458111 0.472702 0.47262 0.48767 0.472702 0.487751 0.48767 0.503192 0.472788 0.487835 0.487751 0.50327 0.487835 0.503349 0.50327 0.519278 0.487751 0.50327 0.503192 0.519202 0.50327 0.519278 0.519202 0.535715 0.416862 0.430162 0.430095 0.443808 0.430162 0.44388 0.443808 0.457954 0.430095 0.443808 0.443747 0.457889 0.443808 0.457954 0.457889 0.472478 0.44388 0.458028 0.457954 0.472545 0.458028 0.47262 0.472545 0.487595 0.457954 0.472545 0.472478 0.487526 0.472545 0.487595 0.487526 0.503048 0.443747 0.457889 0.457833 0.472418 0.457889 0.472478 0.472418 0.487464 0.457833 0.472418 0.472367 0.487409 0.472418 0.487464 0.487409 0.502927 0.472478 0.487526 0.487464 0.502984 0.487526 0.503048 0.502984 0.518994 0.487464 0.502984 0.502927 0.518935 0.502984 0.518994 0.518935 0.535449 0.47262 0.48767 0.487595 0.503118 0.48767 0.503192 0.503118 0.519129 0.487595 0.503118 0.503048 0.519059 0.503118 0.519129 0.519059 0.535574 0.503192 0.519202 0.519129 0.535643 0.519202 0.535715 0.535643 0.552678 0.519129 0.535643 0.535574 0.55261 0.535643 0.552678 0.55261 0.570183 0.503048 0.519059 0.518994 0.535509 0.519059 0.535574 0.535509 0.552545 0.518994 0.535509 0.535449 0.552484 0.535509 0.552545 0.552484 0.570057 0.535574 0.55261 0.552545 0.570118 0.55261 0.570183 0.570118 0.588246 0.552545 0.570118 0.570057 0.588185 0.570118 0.588246 0.588185 0.606885 0.472846 0.488116 0.487928 0.503417 0.488116 0.503385 0.503417 0.519441 0.487928 0.503417 0.503349 0.519355 0.503417 0.519441 0.519355 0.53586 0.503385 0.519624 0.519441 0.535919 0.519624 0.535863 0.535919 0.55297 0.519441 0.535919 0.53586 0.55289 0.535919 0.55297 0.55289 0.570454 0.503349 0.519355 0.519278 0.535788 0.519355 0.53586 0.535788 0.552819 0.519278 0.535788 0.535715 0.552748 0.535788 0.552819 0.552748 0.570319 0.53586 0.55289 0.552819 0.570387 0.55289 0.570454 0.570387 0.588511 0.552819 0.570387 0.570319 0.588443 0.570387 0.588511 0.588443 0.607141 0.535863 0.553159 0.55297 0.570509 0.553159 0.570456 0.570509 0.588658 0.55297 0.570509 0.570454 0.588578 0.570509 0.588658 0.588578 0.607271 0.570456 0.588853 0.588658 0.607323 0.588853 0.60725 0.607323 0.626638 0.588658 0.607323 0.607271 0.626561 0.607323 0.626638 0.626561 0.646455 0.570454 0.588578 0.588511 0.607206 0.588578 0.607271 0.607206 0.626494 0.588511 0.607206 0.607141 0.626429 0.607206 0.626494 0.626429 0.646327 0.607271 0.626561 0.626494 0.646392 0.626561 0.646455 0.646392 0.66692 0.626494 0.646392 0.646327 0.666856 0.646392 0.66692 0.666856 0.688034 0.535715 0.552748 0.552678 0.57025 0.552748 0.570319 0.57025 0.588376 0.552678 0.57025 0.570183 0.58831 0.57025 0.588376 0.58831 0.60701 0.570319 0.588443 0.588376 0.607075 0.588443 0.607141 0.607075 0.626364 0.588376 0.607075 0.60701 0.6263 0.607075 0.626364 0.6263 0.6462 0.570183 0.58831 0.588246 0.606946 0.58831 0.60701 0.606946 0.626237 0.588246 0.606946 0.606885 0.626176 0.606946 0.626237 0.626176 0.646077 0.60701 0.6263 0.626237 0.646138 0.6263 0.6462 0.646138 0.666668 0.626237 0.646138 0.646077 0.666607 0.646138 0.666668 0.666607 0.687787 0.607141 0.626429 0.626364 0.646263 0.626429 0.646327 0.646263 0.666792 0.626364 0.646263 0.6462 0.66673 0.646263 0.666792 0.66673 0.687908 0.646327 0.666856 0.666792 0.687971 0.666856 0.688034 0.687971 0.70982 0.666792 0.687971 0.687908 0.709758 0.687971 0.70982 0.709758 0.732299 0.6462 0.66673 0.666668 0.687847 0.66673 0.687908 0.687847 0.709697 0.666668 0.687847 0.687787 0.709637 0.687847 0.709697 0.709637 0.732178 0.687908 0.709758 0.709697 0.732238 0.709758 0.732299 0.732238 0.755493 0.709697 0.732238 0.732178 0.755433 0.732238 0.755493 0.755433 0.779425 0.472367 0.487409 0.487361 0.502876 0.487409 0.502927 0.502876 0.518882 0.487361 0.502876 0.502832 0.518835 0.502876 0.518882 0.518835 0.535345 0.502927 0.518935 0.518882 0.535394 0.518935 0.535449 0.535394 0.552428 0.518882 0.535394 0.535345 0.552377 0.535394 0.552428 0.552377 0.569947 0.502832 0.518835 0.518793 0.535301 0.518835 0.535345 0.535301 0.55233 0.518793 0.535301 0.535261 0.552289 0.535301 0.55233 0.552289 0.569856 0.535345 0.552377 0.55233 0.569899 0.552377 0.569947 0.569899 0.588024 0.55233 0.569899 0.569856 0.587979 0.569899 0.588024 0.587979 0.606675 0.535449 0.552484 0.552428 0.57 0.552484 0.570057 0.57 0.588127 0.552428 0.57 0.569947 0.588073 0.57 0.588127 0.588073 0.606772 0.570057 0.588185 0.588127 0.606827 0.588185 0.606885 0.606827 0.626118 0.588127 0.606827 0.606772 0.626063 0.606827 0.626118 0.626063 0.645963 0.569947 0.588073 0.588024 0.606722 0.588073 0.606772 0.606722 0.626011 0.588024 0.606722 0.606675 0.625963 0.606722 0.626011 0.625963 0.645862 0.606772 0.626063 0.626011 0.645911 0.626063 0.645963 0.645911 0.66644 0.626011 0.645911 0.645862 0.66639 0.645911 0.66644 0.66639 0.687568 0.535261 0.552289 0.552252 0.569817 0.552289 0.569856 0.569817 0.587938 0.552252 0.569817 0.569783 0.587902 0.569817 0.587938 0.587902 0.606595 0.569856 0.587979 0.587938 0.606633 0.587979 0.606675 0.606633 0.62592 0.587938 0.606633 0.606595 0.62588 0.606633 0.62592 0.62588 0.645776 0.569783 0.587902 0.58787 0.606561 0.587902 0.606595 0.606561 0.625844 0.58787 0.606561 0.606531 0.625812 0.606561 0.625844 0.625812 0.645705 0.606595 0.62588 0.625844 0.645738 0.62588 0.645776 0.645738 0.666262 0.625844 0.645738 0.645705 0.666227 0.645738 0.666262 0.666227 0.6874 0.606675 0.625963 0.62592 0.645817 0.625963 0.645862 0.645817 0.666344 0.62592 0.645817 0.645776 0.666301 0.645817 0.666344 0.666301 0.687477 0.645862 0.66639 0.666344 0.687521 0.66639 0.687568 0.687521 0.709369 0.666344 0.687521 0.687477 0.709324 0.687521 0.709369 0.709324 0.731862 0.645776 0.666301 0.666262 0.687437 0.666301 0.687477 0.687437 0.709282 0.666262 0.687437 0.6874 0.709244 0.687437 0.709282 0.709244 0.73178 0.687477 0.709324 0.709282 0.73182 0.709324 0.731862 0.73182 0.755071 0.709282 0.73182 0.73178 0.75503 0.73182 0.755071 0.75503 0.779017 0.606885 0.626176 0.626118 0.646019 0.626176 0.646077 0.646019 0.666549 0.626118 0.646019 0.645963 0.666493 0.646019 0.666549 0.666493 0.687672 0.646077 0.666607 0.666549 0.687729 0.666607 0.687787 0.687729 0.709578 0.666549 0.687729 0.687672 0.709522 0.687729 0.709578 0.709522 0.732063 0.645963 0.666493 0.66644 0.687619 0.666493 0.687672 0.687619 0.709468 0.66644 0.687619 0.687568 0.709417 0.687619 0.709468 0.709417 0.731957 0.687672 0.709522 0.709468 0.732009 0.709522 0.732063 0.732009 0.755263 0.709468 0.732009 0.731957 0.755211 0.732009 0.755263 0.755211 0.779201 0.687787 0.709637 0.709578 0.73212 0.709637 0.732178 0.73212 0.755375 0.709578 0.73212 0.732063 0.755318 0.73212 0.755375 0.755318 0.779309 0.732178 0.755433 0.755375 0.779366 0.755433 0.779425 0.779366 0.804117 0.755375 0.779366 0.779309 0.80406 0.779366 0.804117 0.80406 0.829595 0.732063 0.755318 0.755263 0.779254 0.755318 0.779309 0.779254 0.804005 0.755263 0.779254 0.779201 0.803951 0.779254 0.804005 0.803951 0.829486 0.779309 0.80406 0.804005 0.829539 0.80406 0.829595 0.829539 0.855883 0.804005 0.829539 0.829486 0.855829 0.829539 0.855883 0.855829 0.883007 0.687568 0.709417 0.709369 0.731908 0.709417 0.731957 0.731908 0.755161 0.709369 0.731908 0.731862 0.755115 0.731908 0.755161 0.755115 0.779103 0.731957 0.755211 0.755161 0.779151 0.755211 0.779201 0.779151 0.803901 0.755161 0.779151 0.779103 0.803852 0.779151 0.803901 0.803852 0.829385 0.731862 0.755115 0.755071 0.779059 0.755115 0.779103 0.779059 0.803807 0.755071 0.779059 0.779017 0.803764 0.779059 0.803807 0.803764 0.829295 0.779103 0.803852 0.803807 0.829339 0.803852 0.829385 0.829339 0.85568 0.803807 0.829339 0.829295 0.855635 0.829339 0.85568 0.855635 0.882811 0.779201 0.803951 0.803901 0.829434 0.803951 0.829486 0.829434 0.855777 0.803901 0.829434 0.829385 0.855727 0.829434 0.855777 0.855727 0.882904 0.829486 0.855829 0.855777 0.882954 0.855829 0.883007 0.882954 0.910993 0.855777 0.882954 0.882904 0.910942 0.882954 0.910993 0.910942 0.939869 0.829385 0.855727 0.85568 0.882856 0.855727 0.882904 0.882856 0.910893 0.85568 0.882856 0.882811 0.910847 0.882856 0.910893 0.910847 0.939772 0.882904 0.910942 0.910893 0.939819 0.910942 0.939869 0.939819 0.969662 0.910893 0.939819 0.939772 0.969614 0.939819 0.969662 0.969614 1.0004 0.60725 0.626841 0.626638 0.646505 0.626841 0.646432 0.646505 0.667064 0.626638 0.646505 0.646455 0.666985 0.646505 0.667064 0.666985 0.68816 0.646432 0.667272 0.667064 0.688209 0.667272 0.688113 0.688209 0.710091 0.667064 0.688209 0.68816 0.710012 0.688209 0.710091 0.710012 0.732551 0.646455 0.666985 0.66692 0.688098 0.666985 0.68816 0.688098 0.709947 0.66692 0.688098 0.688034 0.709883 0.688098 0.709947 0.709883 0.732424 0.68816 0.710012 0.709947 0.732488 0.710012 0.732551 0.732488 0.755745 0.709947 0.732488 0.732424 0.75568 0.732488 0.755745 0.75568 0.779673 0.688113 0.710315 0.710091 0.732601 0.710315 0.732517 0.732601 0.755897 0.710091 0.732601 0.732551 0.755812 0.732601 0.755897 0.755812 0.779803 0.732517 0.756133 0.755897 0.779856 0.756133 0.779749 0.779856 0.804649 0.755897 0.779856 0.779803 0.804563 0.779856 0.804649 0.804563 0.830099 0.732551 0.755812 0.755745 0.779738 0.755812 0.779803 0.779738 0.804493 0.755745 0.779738 0.779673 0.804426 0.779738 0.804493 0.804426 0.829965 0.779803 0.804563 0.804493 0.830032 0.804563 0.830099 0.830032 0.856381 0.804493 0.830032 0.829965 0.856313 0.830032 0.856381 0.856313 0.883496 0.688034 0.709883 0.70982 0.732361 0.709883 0.732424 0.732361 0.755617 0.70982 0.732361 0.732299 0.755554 0.732361 0.755617 0.755554 0.779546 0.732424 0.75568 0.755617 0.779609 0.75568 0.779673 0.779609 0.804362 0.755617 0.779609 0.779546 0.804298 0.779609 0.804362 0.804298 0.829835 0.732299 0.755554 0.755493 0.779485 0.755554 0.779546 0.779485 0.804237 0.755493 0.779485 0.779425 0.804176 0.779485 0.804237 0.804176 0.829712 0.779546 0.804298 0.804237 0.829773 0.804298 0.829835 0.829773 0.856118 0.804237 0.829773 0.829712 0.856057 0.829773 0.856118 0.856057 0.883237 0.779673 0.804426 0.804362 0.829899 0.804426 0.829965 0.829899 0.856246 0.804362 0.829899 0.829835 0.856181 0.829899 0.856246 0.856181 0.883363 0.829965 0.856313 0.856246 0.883428 0.856313 0.883496 0.883428 0.911473 0.856246 0.883428 0.883363 0.911406 0.883428 0.911473 0.911406 0.940338 0.829835 0.856181 0.856118 0.883299 0.856181 0.883363 0.883299 0.911341 0.856118 0.883299 0.883237 0.911279 0.883299 0.911341 0.911279 0.940209 0.883363 0.911406 0.911341 0.940273 0.911406 0.940338 0.940273 0.970122 0.911341 0.940273 0.940209 0.970057 0.940273 0.970122 0.970057 1.00085 0.779749 0.804898 0.804649 0.830152 0.804898 0.830048 0.830152 0.856544 0.804649 0.830152 0.830099 0.856453 0.830152 0.856544 0.856453 0.883635 0.830048 0.856803 0.856544 0.883688 0.856803 0.883558 0.883688 0.91178 0.856544 0.883688 0.883635 0.911687 0.883688 0.91178 0.911687 0.94062 0.830099 0.856453 0.856381 0.883565 0.856453 0.883635 0.883565 0.911612 0.856381 0.883565 0.883496 0.911541 0.883565 0.911612 0.911541 0.940476 0.883635 0.911687 0.911612 0.940548 0.911687 0.94062 0.940548 0.970402 0.911612 0.940548 0.940476 0.970328 0.940548 0.970402 0.970328 1.00113 0.883558 0.912061 0.91178 0.940678 0.912061 0.940564 0.940678 0.970585 0.91178 0.940678 0.94062 0.970481 0.940678 0.970585 0.970481 1.00128 0.940564 0.970883 0.970585 1.00134 0.970883 1.0012 1.00134 1.03317 0.970585 1.00134 1.00128 1.03307 1.00134 1.03317 1.03307 1.06585 0.94062 0.970481 0.970402 1.0012 0.970481 1.00128 1.0012 1.03298 0.970402 1.0012 1.00113 1.0329 1.0012 1.03298 1.0329 1.06569 1.00128 1.03307 1.03298 1.06577 1.03307 1.06585 1.06577 1.09959 1.03298 1.06577 1.06569 1.09951 1.06577 1.09959 1.09951 1.13441 0.883496 0.911541 0.911473 0.940406 0.911541 0.940476 0.940406 0.970257 0.911473 0.940406 0.940338 0.970188 0.940406 0.970257 0.970188 1.00098 0.940476 0.970328 0.970257 1.00105 0.970328 1.00113 1.00105 1.03283 0.970257 1.00105 1.00098 1.03276 1.00105 1.03283 1.03276 1.06554 0.940338 0.970188 0.970122 1.00092 0.970188 1.00098 1.00092 1.03269 0.970122 1.00092 1.00085 1.03262 1.00092 1.03269 1.03262 1.0654 1.00098 1.03276 1.03269 1.06547 1.03276 1.06554 1.06547 1.09929 1.03269 1.06547 1.0654 1.09922 1.06547 1.09929 1.09922 1.13411 1.00113 1.0329 1.03283 1.06561 1.0329 1.06569 1.06561 1.09943 1.03283 1.06561 1.06554 1.09936 1.06561 1.09943 1.09936 1.13425 1.06569 1.09951 1.09943 1.13433 1.09951 1.13441 1.13433 1.17033 1.09943 1.13433 1.13425 1.17025 1.13433 1.17033 1.17025 1.20739 1.06554 1.09936 1.09929 1.13418 1.09936 1.13425 1.13418 1.17018 1.09929 1.13418 1.13411 1.1701 1.13418 1.17018 1.1701 1.20724 1.13425 1.17025 1.17018 1.20732 1.17025 1.20739 1.20732 1.24563 1.17018 1.20732 1.20724 1.24556 1.20732 1.24563 1.24556 1.28509 0.779425 0.804176 0.804117 0.829653 0.804176 0.829712 0.829653 0.855997 0.804117 0.829653 0.829595 0.855939 0.829653 0.855997 0.855939 0.883118 0.829712 0.856057 0.855997 0.883177 0.856057 0.883237 0.883177 0.911218 0.855997 0.883177 0.883118 0.911159 0.883177 0.911218 0.911159 0.940088 0.829595 0.855939 0.855883 0.883062 0.855939 0.883118 0.883062 0.911101 0.855883 0.883062 0.883007 0.911046 0.883062 0.911101 0.911046 0.939974 0.883118 0.911159 0.911101 0.94003 0.911159 0.940088 0.94003 0.969876 0.911101 0.94003 0.939974 0.969819 0.94003 0.969876 0.969819 1.00061 0.883237 0.911279 0.911218 0.940148 0.911279 0.940209 0.940148 0.969995 0.911218 0.940148 0.940088 0.969934 0.940148 0.969995 0.969934 1.00073 0.940209 0.970057 0.969995 1.00079 0.970057 1.00085 1.00079 1.03256 0.969995 1.00079 1.00073 1.0325 1.00079 1.03256 1.0325 1.06527 0.940088 0.969934 0.969876 1.00067 0.969934 1.00073 1.00067 1.03244 0.969876 1.00067 1.00061 1.03238 1.00067 1.03244 1.03238 1.06515 1.00073 1.0325 1.03244 1.06521 1.0325 1.06527 1.06521 1.09903 1.03244 1.06521 1.06515 1.09897 1.06521 1.09903 1.09897 1.13385 0.883007 0.911046 0.910993 0.93992 0.911046 0.939974 0.93992 0.969765 0.910993 0.93992 0.939869 0.969712 0.93992 0.969765 0.969712 1.0005 0.939974 0.969819 0.969765 1.00056 0.969819 1.00061 1.00056 1.03232 0.969765 1.00056 1.0005 1.03227 1.00056 1.03232 1.03227 1.06504 0.939869 0.969712 0.969662 1.00045 0.969712 1.0005 1.00045 1.03222 0.969662 1.00045 1.0004 1.03217 1.00045 1.03222 1.03217 1.06494 1.0005 1.03227 1.03222 1.06499 1.03227 1.06504 1.06499 1.0988 1.03222 1.06499 1.06494 1.09875 1.06499 1.0988 1.09875 1.13363 1.00061 1.03238 1.03232 1.0651 1.03238 1.06515 1.0651 1.09891 1.03232 1.0651 1.06504 1.09885 1.0651 1.09891 1.09885 1.13374 1.06515 1.09897 1.09891 1.13379 1.09897 1.13385 1.13379 1.16979 1.09891 1.13379 1.13374 1.16973 1.13379 1.16979 1.16973 1.20686 1.06504 1.09885 1.0988 1.13368 1.09885 1.13374 1.13368 1.16967 1.0988 1.13368 1.13363 1.16962 1.13368 1.16967 1.16962 1.20675 1.13374 1.16973 1.16967 1.20681 1.16973 1.20686 1.20681 1.24512 1.16967 1.20681 1.20675 1.24506 1.20681 1.24512 1.24506 1.28458 1.00085 1.03262 1.03256 1.06533 1.03262 1.0654 1.06533 1.09915 1.03256 1.06533 1.06527 1.09909 1.06533 1.09915 1.09909 1.13398 1.0654 1.09922 1.09915 1.13404 1.09922 1.13411 1.13404 1.17004 1.09915 1.13404 1.13398 1.16997 1.13404 1.17004 1.16997 1.20711 1.06527 1.09909 1.09903 1.13391 1.09909 1.13398 1.13391 1.16991 1.09903 1.13391 1.13385 1.16984 1.13391 1.16991 1.16984 1.20698 1.13398 1.16997 1.16991 1.20704 1.16997 1.20711 1.20704 1.24535 1.16991 1.20704 1.20698 1.24529 1.20704 1.24535 1.24529 1.28482 1.13411 1.1701 1.17004 1.20717 1.1701 1.20724 1.20717 1.24549 1.17004 1.20717 1.20711 1.24542 1.20717 1.24549 1.24542 1.28495 1.20724 1.24556 1.24549 1.28502 1.24556 1.28509 1.28502 1.3258 1.24549 1.28502 1.28495 1.32573 1.28502 1.3258 1.32573 1.36781 1.