# vtk DataFile Version 3.0
#This file was generated by the deal.II library on 2020/3/18 at 14:21:33
ASCII
DATASET UNSTRUCTURED_GRID

POINTS 33568 double
-1 -1 0
-0.75 -1 0
-1 -0.75 0
-0.75 -0.75 0
-0.75 -1 0
-0.5 -1 0
-0.75 -0.75 0
-0.5 -0.75 0
-1 -0.75 0
-0.75 -0.75 0
-1 -0.5 0
-0.75 -0.5 0
-0.75 -0.75 0
-0.5 -0.75 0
-0.75 -0.5 0
-0.5 -0.5 0
-0.5 -1 0
-0.25 -1 0
-0.5 -0.75 0
-0.25 -0.75 0
-0.25 -1 0
0 -1 0
-0.25 -0.75 0
0 -0.75 0
-0.5 -0.75 0
-0.25 -0.75 0
-0.5 -0.5 0
-0.25 -0.5 0
-0.25 -0.75 0
0 -0.75 0
-0.25 -0.5 0
0 -0.5 0
-1 -0.5 0
-0.75 -0.5 0
-1 -0.25 0
-0.75 -0.25 0
-0.75 -0.5 0
-0.5 -0.5 0
-0.75 -0.25 0
-0.5 -0.25 0
-0.5 -0.5 0
-0.25 -0.5 0
-0.5 -0.25 0
-0.25 -0.25 0
-0.25 -0.5 0
0 -0.5 0
-0.25 -0.25 0
0 -0.25 0
0 -1 0
0.25 -1 0
0 -0.75 0
0.25 -0.75 0
0.25 -1 0
0.5 -1 0
0.25 -0.75 0
0.5 -0.75 0
0 -0.75 0
0.25 -0.75 0
0 -0.5 0
0.25 -0.5 0
0.25 -0.75 0
0.5 -0.75 0
0.25 -0.5 0
0.5 -0.5 0
0.5 -1 0
0.75 -1 0
0.5 -0.75 0
0.75 -0.75 0
0.75 -1 0
1 -1 0
0.75 -0.75 0
1 -0.75 0
0.5 -0.75 0
0.75 -0.75 0
0.5 -0.5 0
0.75 -0.5 0
0.75 -0.75 0
1 -0.75 0
0.75 -0.5 0
1 -0.5 0
0 -0.5 0
0.25 -0.5 0
0 -0.25 0
0.25 -0.25 0
0.25 -0.5 0
0.5 -0.5 0
0.25 -0.25 0
0.5 -0.25 0
0.5 -0.5 0
0.75 -0.5 0
0.5 -0.25 0
0.75 -0.25 0
0.75 -0.5 0
1 -0.5 0
0.75 -0.25 0
1 -0.25 0
-1 -0.25 0
-0.875 -0.25 0
-1 -0.125 0
-0.875 -0.125 0
-0.875 -0.25 0
-0.75 -0.25 0
-0.875 -0.125 0
-0.75 -0.125 0
-0.75 -0.25 0
-0.625 -0.25 0
-0.75 -0.125 0
-0.625 -0.125 0
-0.625 -0.25 0
-0.5 -0.25 0
-0.625 -0.125 0
-0.5 -0.125 0
-0.5 -0.25 0
-0.375 -0.25 0
-0.5 -0.125 0
-0.375 -0.125 0
-0.375 -0.25 0
-0.25 -0.25 0
-0.375 -0.125 0
-0.25 -0.125 0
-0.25 -0.25 0
-0.125 -0.25 0
-0.25 -0.125 0
-0.125 -0.125 0
-0.125 -0.25 0
0 -0.25 0
-0.125 -0.125 0
0 -0.125 0
0 -0.25 0
0.125 -0.25 0
0 -0.125 0
0.125 -0.125 0
0.125 -0.25 0
0.25 -0.25 0
0.125 -0.125 0
0.25 -0.125 0
0.25 -0.25 0
0.375 -0.25 0
0.25 -0.125 0
0.375 -0.125 0
0.375 -0.25 0
0.5 -0.25 0
0.375 -0.125 0
0.5 -0.125 0
0.5 -0.25 0
0.625 -0.25 0
0.5 -0.125 0
0.625 -0.125 0
0.625 -0.25 0
0.75 -0.25 0
0.625 -0.125 0
0.75 -0.125 0
0.75 -0.25 0
0.875 -0.25 0
0.75 -0.125 0
0.875 -0.125 0
0.875 -0.25 0
1 -0.25 0
0.875 -0.125 0
1 -0.125 0
-1 -0.125 0
-0.9375 -0.125 0
-1 -0.0625 0
-0.9375 -0.0625 0
-0.9375 -0.125 0
-0.875 -0.125 0
-0.9375 -0.0625 0
-0.875 -0.0625 0
-0.875 -0.125 0
-0.8125 -0.125 0
-0.875 -0.0625 0
-0.8125 -0.0625 0
-0.8125 -0.125 0
-0.75 -0.125 0
-0.8125 -0.0625 0
-0.75 -0.0625 0
-0.75 -0.125 0
-0.6875 -0.125 0
-0.75 -0.0625 0
-0.6875 -0.0625 0
-0.6875 -0.125 0
-0.625 -0.125 0
-0.6875 -0.0625 0
-0.625 -0.0625 0
-0.625 -0.125 0
-0.5625 -0.125 0
-0.625 -0.0625 0
-0.5625 -0.0625 0
-0.5625 -0.125 0
-0.5 -0.125 0
-0.5625 -0.0625 0
-0.5 -0.0625 0
-0.5 -0.125 0
-0.4375 -0.125 0
-0.5 -0.0625 0
-0.4375 -0.0625 0
-0.4375 -0.125 0
-0.375 -0.125 0
-0.4375 -0.0625 0
-0.375 -0.0625 0
-0.375 -0.125 0
-0.3125 -0.125 0
-0.375 -0.0625 0
-0.3125 -0.0625 0
-0.3125 -0.125 0
-0.25 -0.125 0
-0.3125 -0.0625 0
-0.25 -0.0625 0
-0.25 -0.125 0
-0.1875 -0.125 0
-0.25 -0.0625 0
-0.1875 -0.0625 0
-0.1875 -0.125 0
-0.125 -0.125 0
-0.1875 -0.0625 0
-0.125 -0.0625 0
-0.125 -0.125 0
-0.0625 -0.125 0
-0.125 -0.0625 0
-0.0625 -0.0625 0
-0.0625 -0.125 0
0 -0.125 0
-0.0625 -0.0625 0
0 -0.0625 0
0 -0.125 0
0.0625 -0.125 0
0 -0.0625 0
0.0625 -0.0625 0
0.0625 -0.125 0
0.125 -0.125 0
0.0625 -0.0625 0
0.125 -0.0625 0
0.125 -0.125 0
0.1875 -0.125 0
0.125 -0.0625 0
0.1875 -0.0625 0
0.1875 -0.125 0
0.25 -0.125 0
0.1875 -0.0625 0
0.25 -0.0625 0
0.25 -0.125 0
0.3125 -0.125 0
0.25 -0.0625 0
0.3125 -0.0625 0
0.3125 -0.125 0
0.375 -0.125 0
0.3125 -0.0625 0
0.375 -0.0625 0
0.375 -0.125 0
0.4375 -0.125 0
0.375 -0.0625 0
0.4375 -0.0625 0
0.4375 -0.125 0
0.5 -0.125 0
0.4375 -0.0625 0
0.5 -0.0625 0
0.5 -0.125 0
0.5625 -0.125 0
0.5 -0.0625 0
0.5625 -0.0625 0
0.5625 -0.125 0
0.625 -0.125 0
0.5625 -0.0625 0
0.625 -0.0625 0
0.625 -0.125 0
0.6875 -0.125 0
0.625 -0.0625 0
0.6875 -0.0625 0
0.6875 -0.125 0
0.75 -0.125 0
0.6875 -0.0625 0
0.75 -0.0625 0
0.75 -0.125 0
0.8125 -0.125 0
0.75 -0.0625 0
0.8125 -0.0625 0
0.8125 -0.125 0
0.875 -0.125 0
0.8125 -0.0625 0
0.875 -0.0625 0
0.875 -0.125 0
0.9375 -0.125 0
0.875 -0.0625 0
0.9375 -0.0625 0
0.9375 -0.125 0
1 -0.125 0
0.9375 -0.0625 0
1 -0.0625 0
-1 -0.0625 0
-0.96875 -0.0625 0
-1 -0.03125 0
-0.96875 -0.03125 0
-0.96875 -0.0625 0
-0.9375 -0.0625 0
-0.96875 -0.03125 0
-0.9375 -0.03125 0
-1 -0.03125 0
-0.96875 -0.03125 0
-1 0 0
-0.96875 0 0
-0.96875 -0.03125 0
-0.9375 -0.03125 0
-0.96875 0 0
-0.9375 0 0
-0.9375 -0.0625 0
-0.90625 -0.0625 0
-0.9375 -0.03125 0
-0.90625 -0.03125 0
-0.90625 -0.0625 0
-0.875 -0.0625 0
-0.90625 -0.03125 0
-0.875 -0.03125 0
-0.9375 -0.03125 0
-0.90625 -0.03125 0
-0.9375 0 0
-0.90625 0 0
-0.90625 -0.03125 0
-0.875 -0.03125 0
-0.90625 0 0
-0.875 0 0
-0.875 -0.0625 0
-0.84375 -0.0625 0
-0.875 -0.03125 0
-0.84375 -0.03125 0
-0.84375 -0.0625 0
-0.8125 -0.0625 0
-0.84375 -0.03125 0
-0.8125 -0.03125 0
-0.875 -0.03125 0
-0.84375 -0.03125 0
-0.875 0 0
-0.84375 0 0
-0.84375 -0.03125 0
-0.8125 -0.03125 0
-0.84375 0 0
-0.8125 0 0
-0.8125 -0.0625 0
-0.78125 -0.0625 0
-0.8125 -0.03125 0
-0.78125 -0.03125 0
-0.78125 -0.0625 0
-0.75 -0.0625 0
-0.78125 -0.03125 0
-0.75 -0.03125 0
-0.8125 -0.03125 0
-0.78125 -0.03125 0
-0.8125 0 0
-0.78125 0 0
-0.78125 -0.03125 0
-0.75 -0.03125 0
-0.78125 0 0
-0.75 0 0
-0.75 -0.0625 0
-0.71875 -0.0625 0
-0.75 -0.03125 0
-0.71875 -0.03125 0
-0.71875 -0.0625 0
-0.6875 -0.0625 0
-0.71875 -0.03125 0
-0.6875 -0.03125 0
-0.75 -0.03125 0
-0.71875 -0.03125 0
-0.75 0 0
-0.71875 0 0
-0.71875 -0.03125 0
-0.6875 -0.03125 0
-0.71875 0 0
-0.6875 0 0
-0.6875 -0.0625 0
-0.65625 -0.0625 0
-0.6875 -0.03125 0
-0.65625 -0.03125 0
-0.65625 -0.0625 0
-0.625 -0.0625 0
-0.65625 -0.03125 0
-0.625 -0.03125 0
-0.6875 -0.03125 0
-0.65625 -0.03125 0
-0.6875 0 0
-0.65625 0 0
-0.65625 -0.03125 0
-0.625 -0.03125 0
-0.65625 0 0
-0.625 0 0
-0.625 -0.0625 0
-0.59375 -0.0625 0
-0.625 -0.03125 0
-0.59375 -0.03125 0
-0.59375 -0.0625 0
-0.5625 -0.0625 0
-0.59375 -0.03125 0
-0.5625 -0.03125 0
-0.625 -0.03125 0
-0.59375 -0.03125 0
-0.625 0 0
-0.59375 0 0
-0.59375 -0.03125 0
-0.5625 -0.03125 0
-0.59375 0 0
-0.5625 0 0
-0.5625 -0.0625 0
-0.53125 -0.0625 0
-0.5625 -0.03125 0
-0.53125 -0.03125 0
-0.53125 -0.0625 0
-0.5 -0.0625 0
-0.53125 -0.03125 0
-0.5 -0.03125 0
-0.5625 -0.03125 0
-0.53125 -0.03125 0
-0.5625 0 0
-0.53125 0 0
-0.53125 -0.03125 0
-0.5 -0.03125 0
-0.53125 0 0
-0.5 0 0
-0.5 -0.0625 0
-0.46875 -0.0625 0
-0.5 -0.03125 0
-0.46875 -0.03125 0
-0.46875 -0.0625 0
-0.4375 -0.0625 0
-0.46875 -0.03125 0
-0.4375 -0.03125 0
-0.5 -0.03125 0
-0.46875 -0.03125 0
-0.5 0 0
-0.46875 0 0
-0.46875 -0.03125 0
-0.4375 -0.03125 0
-0.46875 0 0
-0.4375 0 0
-0.4375 -0.0625 0
-0.40625 -0.0625 0
-0.4375 -0.03125 0
-0.40625 -0.03125 0
-0.40625 -0.0625 0
-0.375 -0.0625 0
-0.40625 -0.03125 0
-0.375 -0.03125 0
-0.4375 -0.03125 0
-0.40625 -0.03125 0
-0.4375 0 0
-0.40625 0 0
-0.40625 -0.03125 0
-0.375 -0.03125 0
-0.40625 0 0
-0.375 0 0
-0.375 -0.0625 0
-0.34375 -0.0625 0
-0.375 -0.03125 0
-0.34375 -0.03125 0
-0.34375 -0.0625 0
-0.3125 -0.0625 0
-0.34375 -0.03125 0
-0.3125 -0.03125 0
-0.375 -0.03125 0
-0.34375 -0.03125 0
-0.375 0 0
-0.34375 0 0
-0.34375 -0.03125 0
-0.3125 -0.03125 0
-0.34375 0 0
-0.3125 0 0
-0.3125 -0.0625 0
-0.28125 -0.0625 0
-0.3125 -0.03125 0
-0.28125 -0.03125 0
-0.28125 -0.0625 0
-0.25 -0.0625 0
-0.28125 -0.03125 0
-0.25 -0.03125 0
-0.3125 -0.03125 0
-0.28125 -0.03125 0
-0.3125 0 0
-0.28125 0 0
-0.28125 -0.03125 0
-0.25 -0.03125 0
-0.28125 0 0
-0.25 0 0
-0.25 -0.0625 0
-0.21875 -0.0625 0
-0.25 -0.03125 0
-0.21875 -0.03125 0
-0.21875 -0.0625 0
-0.1875 -0.0625 0
-0.21875 -0.03125 0
-0.1875 -0.03125 0
-0.25 -0.03125 0
-0.21875 -0.03125 0
-0.25 0 0
-0.21875 0 0
-0.21875 -0.03125 0
-0.1875 -0.03125 0
-0.21875 0 0
-0.1875 0 0
-0.1875 -0.0625 0
-0.15625 -0.0625 0
-0.1875 -0.03125 0
-0.15625 -0.03125 0
-0.15625 -0.0625 0
-0.125 -0.0625 0
-0.15625 -0.03125 0
-0.125 -0.03125 0
-0.1875 -0.03125 0
-0.15625 -0.03125 0
-0.1875 0 0
-0.15625 0 0
-0.15625 -0.03125 0
-0.125 -0.03125 0
-0.15625 0 0
-0.125 0 0
-0.125 -0.0625 0
-0.09375 -0.0625 0
-0.125 -0.03125 0
-0.09375 -0.03125 0
-0.09375 -0.0625 0
-0.0625 -0.0625 0
-0.09375 -0.03125 0
-0.0625 -0.03125 0
-0.125 -0.03125 0
-0.09375 -0.03125 0
-0.125 0 0
-0.09375 0 0
-0.09375 -0.03125 0
-0.0625 -0.03125 0
-0.09375 0 0
-0.0625 0 0
-0.0625 -0.0625 0
-0.03125 -0.0625 0
-0.0625 -0.03125 0
-0.03125 -0.03125 0
-0.03125 -0.0625 0
0 -0.0625 0
-0.03125 -0.03125 0
0 -0.03125 0
-0.0625 -0.03125 0
-0.03125 -0.03125 0
-0.0625 0 0
-0.03125 0 0
-0.03125 -0.03125 0
0 -0.03125 0
-0.03125 0 0
0 0 0
0 -0.0625 0
0.03125 -0.0625 0
0 -0.03125 0
0.03125 -0.03125 0
0.03125 -0.0625 0
0.0625 -0.0625 0
0.03125 -0.03125 0
0.0625 -0.03125 0
0 -0.03125 0
0.03125 -0.03125 0
0 0 0
0.03125 0 0
0.03125 -0.03125 0
0.0625 -0.03125 0
0.03125 0 0
0.0625 0 0
0.0625 -0.0625 0
0.09375 -0.0625 0
0.0625 -0.03125 0
0.09375 -0.03125 0
0.09375 -0.0625 0
0.125 -0.0625 0
0.09375 -0.03125 0
0.125 -0.03125 0
0.0625 -0.03125 0
0.09375 -0.03125 0
0.0625 0 0
0.09375 0 0
0.09375 -0.03125 0
0.125 -0.03125 0
0.09375 0 0
0.125 0 0
0.125 -0.0625 0
0.15625 -0.0625 0
0.125 -0.03125 0
0.15625 -0.03125 0
0.15625 -0.0625 0
0.1875 -0.0625 0
0.15625 -0.03125 0
0.1875 -0.03125 0
0.125 -0.03125 0
0.15625 -0.03125 0
0.125 0 0
0.15625 0 0
0.15625 -0.03125 0
0.1875 -0.03125 0
0.15625 0 0
0.1875 0 0
0.1875 -0.0625 0
0.21875 -0.0625 0
0.1875 -0.03125 0
0.21875 -0.03125 0
0.21875 -0.0625 0
0.25 -0.0625 0
0.21875 -0.03125 0
0.25 -0.03125 0
0.1875 -0.03125 0
0.21875 -0.03125 0
0.1875 0 0
0.21875 0 0
0.21875 -0.03125 0
0.25 -0.03125 0
0.21875 0 0
0.25 0 0
0.25 -0.0625 0
0.28125 -0.0625 0
0.25 -0.03125 0
0.28125 -0.03125 0
0.28125 -0.0625 0
0.3125 -0.0625 0
0.28125 -0.03125 0
0.3125 -0.03125 0
0.25 -0.03125 0
0.28125 -0.03125 0
0.25 0 0
0.28125 0 0
0.28125 -0.03125 0
0.3125 -0.03125 0
0.28125 0 0
0.3125 0 0
0.3125 -0.0625 0
0.34375 -0.0625 0
0.3125 -0.03125 0
0.34375 -0.03125 0
0.34375 -0.0625 0
0.375 -0.0625 0
0.34375 -0.03125 0
0.375 -0.03125 0
0.3125 -0.03125 0
[...]
POINT_DATA 33568
SCALARS solution double 1
LOOKUP_TABLE default
0.135335 0.173774 0.173774 0.223031 0.173774 0.22313 0.223031 0.286282 0.173774 0.223031 0.22313 0.286156 0.223031 0.286282 0.286156 0.367214 0.22313 0.286505 0.286282 0.367551 0.286505 0.367879 0.367551 0.471958 0.286282 0.367551 0.367214 0.47146 0.367551 0.471958 0.47146 0.605382 0.22313 0.286156 0.286505 0.366868 0.286156 0.367214 0.366868 0.471007 0.367214 0.47146 0.471007 0.604754 0.47146 0.605382 0.604754 0.776525 0.367879 0.472367 0.471958 0.606085 0.472367 0.606531 0.606085 0.778455 0.471958 0.606085 0.605382 0.777429 0.606085 0.778455 0.777429 0.998513 0.606531 0.778801 0.778455 0.999905 0.778801 1 0.999905 1.28403 0.778455 0.999905 0.998513 1.28312 0.999905 1.28403 1.28312 1.64872 0.605382 0.777429 0.776525 0.997124 0.777429 0.998513 0.997124 1.2805 0.998513 1.28312 1.2805 1.64441 1.28312 1.64872 1.64441 2.117 0.286505 0.326686 0.324652 0.367966 0.326686 0.366868 0.367966 0.41728 0.366868 0.418938 0.41728 0.472436 0.418938 0.471007 0.472436 0.535763 0.471007 0.53788 0.535763 0.60662 0.53788 0.604754 0.60662 0.687931 0.604754 0.690639 0.687931 0.778912 0.690639 0.776525 0.778912 0.883318 0.776525 0.886824 0.883318 1.00014 0.886824 0.997124 1.00014 1.13421 0.997124 1.13881 1.13421 1.28422 1.13881 1.2805 1.28422 1.45635 1.2805 1.46245 1.45635 1.64896 1.46245 1.64441 1.64896 1.8702 1.64441 1.8807 1.8702 2.11755 1.8807 2.117 2.11755 2.39888 0.324652 0.346309 0.345591 0.368055 0.346309 0.367966 0.368055 0.392004 0.367966 0.392623 0.392004 0.417305 0.392623 0.41728 0.417305 0.444361 0.41728 0.444858 0.444361 0.472909 0.444858 0.472436 0.472909 0.503502 0.472436 0.5041 0.503502 0.535903 0.5041 0.535763 0.535903 0.570612 0.535763 0.571192 0.570612 0.607256 0.571192 0.60662 0.607256 0.646532 0.60662 0.647275 0.646532 0.688129 0.647275 0.687931 0.688129 0.732691 0.687931 0.733421 0.732691 0.779737 0.733421 0.778912 0.779737 0.830164 0.778912 0.831115 0.830164 0.883572 0.831115 0.883318 0.883572 0.940786 0.883318 0.941729 0.940786 1.00119 0.941729 1.00014 1.00119 1.06594 1.00014 1.06717 1.06594 1.13451 1.06717 1.13421 1.13451 1.20797 1.13421 1.20921 1.20797 1.28552 1.20921 1.28422 1.28552 1.36865 1.28422 1.37028 1.36865 1.45669 1.37028 1.45635 1.45669 1.551 1.45635 1.55266 1.551 1.65056 1.55266 1.64896 1.65056 1.75728 1.64896 1.75958 1.75728 1.8703 1.75958 1.8702 1.8703 1.99134 1.8702 1.99387 1.99134 2.11903 1.99387 2.11755 2.11903 2.25558 2.11755 2.25821 2.25558 2.39983 2.25821 2.39888 2.39983 2.55359 0.345591 0.356823 0.356561 0.367999 0.356823 0.368055 0.367999 0.379794 0.356561 0.367999 0.367879 0.37965 0.367999 0.379794 0.37965 0.391793 0.368055 0.380029 0.379794 0.391918 0.380029 0.392004 0.391918 0.404447 0.379794 0.391918 0.391793 0.404311 0.391918 0.404447 0.404311 0.417208 0.392004 0.404655 0.404447 0.417315 0.404655 0.417305 0.417315 0.430622 0.404447 0.417315 0.417208 0.430507 0.417315 0.430622 0.430507 0.444214 0.417305 0.430833 0.430622 0.44431 0.430833 0.444361 0.44431 0.458461 0.430622 0.44431 0.444214 0.458353 0.44431 0.458461 0.458353 0.472927 0.444361 0.458635 0.458461 0.472997 0.458635 0.472909 0.472997 0.488034 0.458461 0.472997 0.472927 0.487959 0.472997 0.488034 0.487959 0.503458 0.472909 0.488206 0.488034 0.503512 0.488206 0.503502 0.503512 0.519533 0.488034 0.503512 0.503458 0.519453 0.503512 0.519533 0.519453 0.53595 0.503502 0.519702 0.519533 0.536002 0.519702 0.535903 0.536002 0.55305 0.519533 0.536002 0.53595 0.552976 0.536002 0.55305 0.552976 0.570536 0.535903 0.553257 0.55305 0.570597 0.553257 0.570612 0.570597 0.58875 0.55305 0.570597 0.570536 0.58866 0.570597 0.58875 0.58866 0.60735 0.570612 0.588934 0.58875 0.6074 0.588934 0.607256 0.6074 0.626698 0.58875 0.6074 0.60735 0.626634 0.6074 0.626698 0.626634 0.646521 0.607256 0.626894 0.626698 0.646565 0.626894 0.646532 0.646565 0.667129 0.626698 0.646565 0.646521 0.667049 0.646565 0.667129 0.667049 0.688223 0.646532 0.667331 0.667129 0.688271 0.667331 0.688129 0.688271 0.710156 0.667129 0.688271 0.688223 0.710076 0.688271 0.710156 0.710076 0.732617 0.688129 0.71041 0.710156 0.732683 0.71041 0.732691 0.732683 0.755987 0.710156 0.732683 0.732617 0.755883 0.732683 0.755987 0.755883 0.779876 0.732691 0.756214 0.755987 0.77993 0.756214 0.779737 0.77993 0.804705 0.755987 0.77993 0.779876 0.804631 0.77993 0.804705 0.804631 0.830162 0.779737 0.80495 0.804705 0.830211 0.80495 0.830164 0.830211 0.856614 0.804705 0.830211 0.830162 0.856516 0.830211 0.856614 0.856516 0.883699 0.830164 0.856868 0.856614 0.883756 0.856868 0.883572 0.883756 0.911854 0.856614 0.883756 0.883699 0.911756 0.883756 0.911854 0.911756 0.940695 0.883572 0.912179 0.911854 0.940776 0.912179 0.940786 0.940776 0.970697 0.911854 0.940776 0.940695 0.970565 0.940776 0.970697 0.970565 1.00137 0.940786 0.970989 0.970697 1.00144 0.970989 1.00119 1.00144 1.03325 0.970697 1.00144 1.00137 1.03315 1.00144 1.03325 1.03315 1.06593 1.00119 1.03356 1.03325 1.06599 1.03356 1.06594 1.06599 1.09989 1.03325 1.06599 1.06593 1.09976 1.06599 1.09989 1.09976 1.13466 1.06594 1.10022 1.09989 1.13474 1.10022 1.13451 1.13474 1.17082 1.09989 1.13474 1.13466 1.17069 1.13474 1.17082 1.17069 1.20784 1.13451 1.17124 1.17082 1.20795 1.17124 1.20797 1.20795 1.24636 1.17082 1.20795 1.20784 1.24619 1.20795 1.24636 1.24619 1.28573 1.20797 1.24675 1.24636 1.28583 1.24675 1.28552 1.28583 1.32667 1.24636 1.28583 1.28573 1.32654 1.28583 1.32667 1.32654 1.36862 1.28552 1.32709 1.32667 1.36871 1.32709 1.36865 1.36871 1.41223 1.32667 1.36871 1.36862 1.41205 1.36871 1.41223 1.41205 1.45686 1.36865 1.41267 1.41223 1.45697 1.41267 1.45669 1.45697 1.50328 1.41223 1.45697 1.45686 1.5031 1.45697 1.50328 1.5031 1.55079 1.45669 1.50384 1.50328 1.55095 1.50384 1.551 1.55095 1.60026 1.50328 1.55095 1.55079 1.60002 1.55095 1.60026 1.60002 1.65078 1.551 1.60078 1.60026 1.65092 1.60078 1.65056 1.65092 1.70334 1.60026 1.65092 1.65078 1.70315 1.65092 1.70334 1.70315 1.75716 1.65056 1.70392 1.70334 1.75731 1.70392 1.75728 1.75731 1.81317 1.70334 1.75731 1.75716 1.81291 1.75731 1.81317 1.81291 1.87041 1.75728 1.81379 1.81317 1.87059 1.81379 1.8703 1.87059 1.93002 1.81317 1.87059 1.87041 1.92975 1.87059 1.93002 1.92975 1.99094 1.8703 1.93082 1.93002 1.99119 1.93082 1.99134 1.99119 2.05444 1.93002 1.99119 1.99094 2.05409 1.99119 2.05444 2.05409 2.11919 1.99134 2.05519 2.05444 2.1194 2.05519 2.11903 2.1194 2.18657 2.05444 2.1194 2.11919 2.18633 2.1194 2.18657 2.18633 2.25553 2.11903 2.18731 2.18657 2.25566 2.18731 2.25558 2.25566 2.3271 2.18657 2.25566 2.25553 2.32691 2.25566 2.3271 2.32691 2.40047 2.25558 2.32771 2.3271 2.40047 2.32771 2.39983 2.40047 2.4763 2.3271 2.40047 2.40047 2.47633 2.40047 2.4763 2.47633 2.55451 2.39983 2.47671 2.4763 2.55425 2.47671 2.55359 2.55425 2.63465 2.4763 2.55425 2.55451 2.6351 2.55425 2.63465 2.6351 2.71828 0.367879 0.373764 0.373673 0.379611 0.373764 0.37965 0.379611 0.385641 0.373673 0.379611 0.379557 0.385583 0.379611 0.385641 0.385583 0.3917 0.37965 0.385721 0.385641 0.391754 0.385721 0.391793 0.391754 0.39797 0.385641 0.391754 0.3917 0.397912 0.391754 0.39797 0.397912 0.404217 0.379557 0.385583 0.385534 0.39165 0.385583 0.3917 0.39165 0.39786 0.385534 0.39165 0.391606 0.397813 0.39165 0.39786 0.397813 0.404118 0.3917 0.397912 0.39786 0.404165 0.397912 0.404217 0.404165 0.410568 0.39786 0.404165 0.404118 0.41052 0.404165 0.410568 0.41052 0.41702 0.391793 0.398052 0.39797 0.404271 0.398052 0.404311 0.404271 0.410679 0.39797 0.404271 0.404217 0.410621 0.404271 0.410679 0.410621 0.417122 0.404311 0.410759 0.410679 0.417174 0.410759 0.417208 0.417174 0.423779 0.410679 0.417174 0.417122 0.423723 0.417174 0.423779 0.423723 0.430425 0.404217 0.410621 0.410568 0.417069 0.410621 0.417122 0.417069 0.423671 0.410568 0.417069 0.41702 0.423622 0.417069 0.423671 0.423622 0.430325 0.417122 0.423723 0.423671 0.430374 0.423723 0.430425 0.430374 0.437181 0.423671 0.430374 0.430325 0.437132 0.430374 0.437181 0.437132 0.444044 0.391606 0.397813 0.397773 0.404075 0.397813 0.404118 0.404075 0.410475 0.397773 0.404075 0.404037 0.410435 0.404075 0.410475 0.410435 0.416934 0.404118 0.41052 0.410475 0.416975 0.41052 0.41702 0.416975 0.423576 0.410475 0.416975 0.416934 0.423533 0.416975 0.423576 0.423533 0.430236 0.404037 0.410435 0.410399 0.416896 0.410435 0.416934 0.416896 0.423494 0.410399 0.416896 0.416862 0.423459 0.416896 0.423494 0.423459 0.430159 0.416934 0.423533 0.423494 0.430196 0.423533 0.430236 0.430196 0.437002 0.423494 0.430196 0.430159 0.436964 0.430196 0.437002 0.436964 0.443875 0.41702 0.423622 0.423576 0.430279 0.423622 0.430325 0.430279 0.437086 0.423576 0.430279 0.430236 0.437042 0.430279 0.437086 0.437042 0.443955 0.430325 0.437132 0.437086 0.443998 0.437132 0.444044 0.443998 0.451018 0.437086 0.443998 0.443955 0.450974 0.443998 0.451018 0.450974 0.458103 0.430236 0.437042 0.437002 0.443913 0.437042 0.443955 0.443913 0.450933 0.437002 0.443913 0.443875 0.450894 0.443913 0.450933 0.450894 0.458022 0.443955 0.450974 0.450933 0.458061 0.450974 0.458103 0.458061 0.4653 0.450933 0.458061 0.458022 0.465261 0.458061 0.4653 0.465261 0.472612 0.417208 0.423858 0.423779 0.430476 0.423858 0.430507 0.430476 0.437285 0.423779 0.430476 0.430425 0.437231 0.430476 0.437285 0.437231 0.444141 0.430507 0.437361 0.437285 0.444189 0.437361 0.444214 0.444189 0.45121 0.437285 0.444189 0.444141 0.451159 0.444189 0.45121 0.451159 0.458284 0.430425 0.437231 0.437181 0.444092 0.437231 0.444141 0.444092 0.45111 0.437181 0.444092 0.444044 0.451063 0.444092 0.45111 0.451063 0.458191 0.444141 0.451159 0.45111 0.458237 0.451159 0.458284 0.458237 0.465474 0.45111 0.458237 0.458191 0.465429 0.458237 0.465474 0.465429 0.472779 0.444214 0.451284 0.45121 0.458329 0.451284 0.458353 0.458329 0.465569 0.45121 0.458329 0.458284 0.46552 0.458329 0.465569 0.46552 0.472867 0.458353 0.46564 0.465569 0.472909 0.46564 0.472927 0.472909 0.480375 0.465569 0.472909 0.472867 0.48033 0.472909 0.480375 0.48033 0.487907 0.458284 0.46552 0.465474 0.472823 0.46552 0.472867 0.472823 0.480286 0.465474 0.472823 0.472779 0.480243 0.472823 0.480286 0.480243 0.487823 0.472867 0.48033 0.480286 0.487865 0.48033 0.487907 0.487865 0.495562 0.480286 0.487865 0.487823 0.495521 0.487865 0.495562 0.495521 0.503339 0.444044 0.451063 0.451018 0.458146 0.451063 0.458191 0.458146 0.465385 0.451018 0.458146 0.458103 0.465342 0.458146 0.465385 0.465342 0.472693 0.458191 0.465429 0.465385 0.472736 0.465429 0.472779 0.472736 0.480201 0.465385 0.472736 0.472693 0.480159 0.472736 0.480201 0.480159 0.48774 0.458103 0.465342 0.4653 0.472652 0.465342 0.472693 0.472652 0.480118 0.4653 0.472652 0.472612 0.480079 0.472652 0.480118 0.480079 0.487661 0.472693 0.480159 0.480118 0.4877 0.480159 0.48774 0.4877 0.4954 0.480118 0.4877 0.487661 0.495362 0.4877 0.4954 0.495362 0.503182 0.472779 0.480243 0.480201 0.487782 0.480243 0.487823 0.487782 0.49548 0.480201 0.487782 0.48774 0.49544 0.487782 0.49548 0.49544 0.50326 0.487823 0.495521 0.49548 0.503299 0.495521 0.503339 0.503299 0.51124 0.49548 0.503299 0.50326 0.511201 0.503299 0.51124 0.511201 0.519266 0.48774 0.49544 0.4954 0.503221 0.49544 0.50326 0.503221 0.511162 0.4954 0.503221 0.503182 0.511125 0.503221 0.511162 0.511125 0.519191 0.50326 0.511201 0.511162 0.519228 0.511201 0.519266 0.519228 0.52742 0.511162 0.519228 0.519191 0.527383 0.519228 0.52742 0.527383 0.535703 0.416862 0.423459 0.423427 0.430125 0.423459 0.430159 0.430125 0.436929 0.423427 0.430125 0.430095 0.436897 0.430125 0.436929 0.436897 0.443806 0.430159 0.436964 0.436929 0.443839 0.436964 0.443875 0.443839 0.450857 0.436929 0.443839 0.443806 0.450823 0.443839 0.450857 0.450823 0.45795 0.430095 0.436897 0.436868 0.443775 0.436897 0.443806 0.443775 0.450791 0.436868 0.443775 0.443747 0.450762 0.443775 0.450791 0.450762 0.457887 0.443806 0.450823 0.450791 0.457917 0.450823 0.45795 0.457917 0.465155 0.450791 0.457917 0.457887 0.465124 0.457917 0.465155 0.465124 0.472474 0.443875 0.450894 0.450857 0.457985 0.450894 0.458022 0.457985 0.465223 0.450857 0.457985 0.45795 0.465188 0.457985 0.465223 0.465188 0.472539 0.458022 0.465261 0.465223 0.472575 0.465261 0.472612 0.472575 0.480041 0.465223 0.472575 0.472539 0.480005 0.472575 0.480041 0.480005 0.487587 0.45795 0.465188 0.465155 0.472505 0.465188 0.472539 0.472505 0.479971 0.465155 0.472505 0.472474 0.479938 0.472505 0.479971 0.479938 0.48752 0.472539 0.480005 0.479971 0.487553 0.480005 0.487587 0.487553 0.495253 0.479971 0.487553 0.48752 0.49522 0.487553 0.495253 0.49522 0.503041 0.443747 0.450762 0.450735 0.457859 0.450762 0.457887 0.457859 0.465095 0.450735 0.457859 0.457833 0.465068 0.457859 0.465095 0.465068 0.472416 0.457887 0.465124 0.465095 0.472444 0.465124 0.472474 0.472444 0.479908 0.465095 0.472444 0.472416 0.47988 0.472444 0.479908 0.47988 0.48746 0.457833 0.465068 0.465043 0.472391 0.465068 0.472416 0.472391 0.479853 0.465043 0.472391 0.472367 0.479828 0.472391 0.479853 0.479828 0.487407 0.472416 0.47988 0.479853 0.487433 0.47988 0.48746 0.487433 0.495131 0.479853 0.487433 0.487407 0.495105 0.487433 0.495131 0.495105 0.502923 0.472474 0.479938 0.479908 0.487489 0.479938 0.48752 0.487489 0.495189 0.479908 0.487489 0.48746 0.495159 0.487489 0.495189 0.495159 0.502979 0.48752 0.49522 0.495189 0.503009 0.49522 0.503041 0.503009 0.510951 0.495189 0.503009 0.502979 0.510921 0.503009 0.510951 0.510921 0.518987 0.48746 0.495159 0.495131 0.50295 0.495159 0.502979 0.50295 0.510892 0.495131 0.50295 0.502923 0.510864 0.50295 0.510892 0.510864 0.51893 0.502979 0.510921 0.510892 0.518958 0.510921 0.518987 0.518958 0.52715 0.510892 0.518958 0.51893 0.527122 0.518958 0.52715 0.527122 0.535442 0.472612 0.480079 0.480041 0.487623 0.480079 0.487661 0.487623 0.495324 0.480041 0.487623 0.487587 0.495288 0.487623 0.495324 0.495288 0.503109 0.487661 0.495362 0.495324 0.503145 0.495362 0.503182 0.503145 0.511088 0.495324 0.503145 0.503109 0.511052 0.503145 0.511088 0.511052 0.519118 0.487587 0.495288 0.495253 0.503074 0.495288 0.503109 0.503074 0.511017 0.495253 0.503074 0.503041 0.510983 0.503074 0.511017 0.510983 0.51905 0.503109 0.511052 0.511017 0.519084 0.511052 0.519118 0.519084 0.527277 0.511017 0.519084 0.51905 0.527243 0.519084 0.527277 0.527243 0.535564 0.503182 0.511125 0.511088 0.519154 0.511125 0.519191 0.519154 0.527347 0.511088 0.519154 0.519118 0.527311 0.519154 0.527347 0.527311 0.535632 0.519191 0.527383 0.527347 0.535667 0.527383 0.535703 0.535667 0.544118 0.527347 0.535667 0.535632 0.544083 0.535667 0.544118 0.544083 0.552666 0.519118 0.527311 0.527277 0.535598 0.527311 0.535632 0.535598 0.544049 0.527277 0.535598 0.535564 0.544015 0.535598 0.544049 0.544015 0.552599 0.535632 0.544083 0.544049 0.552632 0.544083 0.552666 0.552632 0.561349 0.544049 0.552632 0.552599 0.561316 0.552632 0.561349 0.561316 0.57017 0.503041 0.510983 0.510951 0.519018 0.510983 0.51905 0.519018 0.527211 0.510951 0.519018 0.518987 0.52718 0.519018 0.527211 0.52718 0.535501 0.51905 0.527243 0.527211 0.535532 0.527243 0.535564 0.535532 0.543983 0.527211 0.535532 0.535501 0.543952 0.535532 0.543983 0.543952 0.552535 0.518987 0.52718 0.52715 0.535471 0.52718 0.535501 0.535471 0.543922 0.52715 0.535471 0.535442 0.543893 0.535471 0.543922 0.543893 0.552476 0.535501 0.543952 0.543922 0.552505 0.543952 0.552535 0.552505 0.561222 0.543922 0.552505 0.552476 0.561193 0.552505 0.561222 0.561193 0.570047 0.535564 0.544015 0.543983 0.552566 0.544015 0.552599 0.552566 0.561284 0.543983 0.552566 0.552535 0.561253 0.552566 0.561284 0.561253 0.570107 0.552599 0.561316 0.561284 0.570138 0.561316 0.57017 0.570138 0.579131 0.561284 0.570138 0.570107 0.5791 0.570138 0.579131 0.5791 0.588234 0.552535 0.561253 0.561222 0.570077 0.561253 0.570107 0.570077 0.579069 0.561222 0.570077 0.570047 0.57904 0.570077 0.579069 0.57904 0.588173 0.570107 0.5791 0.579069 0.588203 0.5791 0.588234 0.588203 0.59748 0.579069 0.588203 0.588173 0.59745 0.588203 0.59748 0.59745 0.606872 0.472927 0.480443 0.480375 0.487945 0.480443 0.487959 0.487945 0.495644 0.480375 0.487945 0.487907 0.495602 0.487945 0.495644 0.495602 0.503417 0.487959 0.495708 0.495644 0.503451 0.495708 0.503458 0.503451 0.511393 0.495644 0.503451 0.503417 0.511354 0.503451 0.511393 0.511354 0.519414 0.487907 0.495602 0.495562 0.503378 0.495602 0.503417 0.503378 0.511316 0.495562 0.503378 0.503339 0.511278 0.503378 0.511316 0.511278 0.519341 0.503417 0.511354 0.511316 0.519378 0.511354 0.519414 0.519378 0.527567 0.511316 0.519378 0.519341 0.52753 0.519378 0.527567 0.52753 0.535848 0.503458 0.511455 0.511393 0.519446 0.511455 0.519453 0.519446 0.527639 0.511393 0.519446 0.519414 0.527602 0.519446 0.527639 0.527602 0.535917 0.519453 0.527702 0.527639 0.535948 0.527702 0.53595 0.535948 0.5444 0.527639 0.535948 0.535917 0.544364 0.535948 0.5444 0.544364 0.552942 0.519414 0.527602 0.527567 0.535883 0.527602 0.535917 0.535883 0.54433 0.527567 0.535883 0.535848 0.544295 0.535883 0.54433 0.544295 0.552875 0.535917 0.544364 0.54433 0.552909 0.544364 0.552942 0.552909 0.561623 0.54433 0.552909 0.552875 0.561589 0.552909 0.561623 0.561589 0.57044 0.503339 0.511278 0.51124 0.519304 0.511278 0.519341 0.519304 0.527494 0.51124 0.519304 0.519266 0.527457 0.519304 0.527494 0.527457 0.535776 0.519341 0.52753 0.527494 0.535812 0.52753 0.535848 0.535812 0.54426 0.527494 0.535812 0.535776 0.544224 0.535812 0.54426 0.544224 0.552805 0.519266 0.527457 0.52742 0.535739 0.527457 0.535776 0.535739 0.544189 0.52742 0.535739 0.535703 0.544153 0.535739 0.544189 0.544153 0.552735 0.535776 0.544224 0.544189 0.55277 0.544224 0.552805 0.55277 0.561486 0.544189 0.55277 0.552735 0.561452 0.55277 0.561486 0.561452 0.570304 0.535848 0.544295 0.54426 0.55284 0.544295 0.552875 0.55284 0.561555 0.54426 0.55284 0.552805 0.561521 0.55284 0.561555 0.561521 0.570372 0.552875 0.561589 0.561555 0.570406 0.561589 0.57044 0.570406 0.579396 0.561555 0.570406 0.570372 0.579363 0.570406 0.579396 0.579363 0.588494 0.552805 0.561521 0.561486 0.570338 0.561521 0.570372 0.570338 0.579329 0.561486 0.570338 0.570304 0.579296 0.570338 0.579329 0.579296 0.588428 0.570372 0.579363 0.579329 0.588461 0.579363 0.588494 0.588461 0.597736 0.579329 0.588461 0.588428 0.597703 0.588461 0.597736 0.597703 0.607124 0.53595 0.544463 0.5444 0.552972 0.544463 0.552976 0.552972 0.561692 0.5444 0.552972 0.552942 0.561656 0.552972 0.561692 0.561656 0.570506 0.552976 0.561756 0.561692 0.570536 0.561756 0.570536 0.570536 0.579532 0.561692 0.570536 0.570506 0.579496 0.570536 0.579532 0.579496 0.588626 0.552942 0.561656 0.561623 0.570473 0.561656 0.570506 0.570473 0.579463 0.561623 0.570473 0.57044 0.57943 0.570473 0.579463 0.57943 0.588561 0.570506 0.579496 0.579463 0.588594 0.579496 0.588626 0.588594 0.597868 0.579463 0.588594 0.588561 0.597835 0.588594 0.597868 0.597835 0.607255 0.570536 0.579598 0.579532 0.588657 0.579598 0.58866 0.588657 0.597938 0.579532 0.588657 0.588626 0.597901 0.588657 0.597938 0.597901 0.607321 0.58866 0.598005 0.597938 0.607351 0.598005 0.60735 0.607351 0.616925 0.597938 0.607351 0.607321 0.616889 0.607351 0.616925 0.616889 0.626606 0.588626 0.597901 0.597868 0.607288 0.597901 0.607321 0.607288 0.616856 0.597868 0.607288 0.607255 0.616823 0.607288 0.616856 0.616823 0.626541 0.607321 0.616889 0.616856 0.626574 0.616889 0.626606 0.626574 0.636444 0.616856 0.626574 0.626541 0.636412 0.626574 0.636444 0.636412 0.646438 0.57044 0.57943 0.579396 0.588527 0.57943 0.588561 0.588527 0.597802 0.579396 0.588527 0.588494 0.597769 0.588527 0.597802 0.597769 0.607189 0.588561 0.597835 0.597802 0.607222 0.597835 0.607255 0.607222 0.61679 0.597802 0.607222 0.607189 0.616758 0.607222 0.61679 0.616758 0.626476 0.588494 0.597769 0.597736 0.607157 0.597769 0.607189 0.607157 0.616725 0.597736 0.607157 0.607124 0.616693 0.607157 0.616725 0.616693 0.626411 0.607189 0.616758 0.616725 0.626444 0.616758 0.626476 0.626444 0.636315 0.616725 0.626444 0.626411 0.636283 0.626444 0.636315 0.636283 0.646309 0.607255 0.616823 0.61679 0.626508 0.616823 0.626541 0.626508 0.636379 0.61679 0.626508 0.626476 0.636347 0.626508 0.636379 0.636347 0.6463