# vtk DataFile Version 3.0
#This file was generated by the deal.II library on 2020/3/18 at 14:59:18
ASCII
DATASET UNSTRUCTURED_GRID

POINTS 8392 double
-0.25 -1 0
-0.125 -1 0
-0.25 -0.875 0
-0.125 -0.875 0
-0.125 -1 0
0 -1 0
-0.125 -0.875 0
0 -0.875 0
-0.5 -0.75 0
-0.375 -0.75 0
-0.5 -0.625 0
-0.375 -0.625 0
-0.75 -0.5 0
-0.625 -0.5 0
-0.75 -0.375 0
-0.625 -0.375 0
-1 -0.25 0
-0.875 -0.25 0
-1 -0.125 0
-0.875 -0.125 0
-1 -0.125 0
-0.875 -0.125 0
-1 0 0
-0.875 0 0
-0.75 -1 0
-0.625 -1 0
-0.75 -0.875 0
-0.625 -0.875 0
-0.625 -1 0
-0.5 -1 0
-0.625 -0.875 0
-0.5 -0.875 0
-0.75 -0.875 0
-0.625 -0.875 0
-0.75 -0.75 0
-0.625 -0.75 0
-0.625 -0.875 0
-0.5 -0.875 0
-0.625 -0.75 0
-0.5 -0.75 0
-1 -0.75 0
-0.875 -0.75 0
-1 -0.625 0
-0.875 -0.625 0
-0.875 -0.75 0
-0.75 -0.75 0
-0.875 -0.625 0
-0.75 -0.625 0
-1 -0.625 0
-0.875 -0.625 0
-1 -0.5 0
-0.875 -0.5 0
-0.875 -0.625 0
-0.75 -0.625 0
-0.875 -0.5 0
-0.75 -0.5 0
-0.75 -0.75 0
-0.625 -0.75 0
-0.75 -0.625 0
-0.625 -0.625 0
-0.625 -0.75 0
-0.5 -0.75 0
-0.625 -0.625 0
-0.5 -0.625 0
-0.75 -0.625 0
-0.625 -0.625 0
-0.75 -0.5 0
-0.625 -0.5 0
-0.625 -0.625 0
-0.5 -0.625 0
-0.625 -0.5 0
-0.5 -0.5 0
-0.5 -1 0
-0.375 -1 0
-0.5 -0.875 0
-0.375 -0.875 0
-0.375 -1 0
-0.25 -1 0
-0.375 -0.875 0
-0.25 -0.875 0
-0.5 -0.875 0
-0.375 -0.875 0
-0.5 -0.75 0
-0.375 -0.75 0
-0.375 -0.875 0
-0.25 -0.875 0
-0.375 -0.75 0
-0.25 -0.75 0
-1 -0.5 0
-0.875 -0.5 0
-1 -0.375 0
-0.875 -0.375 0
-0.875 -0.5 0
-0.75 -0.5 0
-0.875 -0.375 0
-0.75 -0.375 0
-1 -0.375 0
-0.875 -0.375 0
-1 -0.25 0
-0.875 -0.25 0
-0.875 -0.375 0
-0.75 -0.375 0
-0.875 -0.25 0
-0.75 -0.25 0
-1 -1 0
-0.875 -1 0
-1 -0.875 0
-0.875 -0.875 0
-0.875 -1 0
-0.75 -1 0
-0.875 -0.875 0
-0.75 -0.875 0
-1 -0.875 0
-0.875 -0.875 0
-1 -0.75 0
-0.875 -0.75 0
-0.875 -0.875 0
-0.75 -0.875 0
-0.875 -0.75 0
-0.75 -0.75 0
0.625 -0.375 0
0.6875 -0.375 0
0.625 -0.3125 0
0.6875 -0.3125 0
0.5 -0.25 0
0.5625 -0.25 0
0.5 -0.1875 0
0.5625 -0.1875 0
-0.375 0.625 0
-0.3125 0.625 0
-0.375 0.6875 0
-0.3125 0.6875 0
-0.25 0.5 0
-0.1875 0.5 0
-0.25 0.5625 0
-0.1875 0.5625 0
0.25 0 0
0.3125 0 0
0.25 0.0625 0
0.3125 0.0625 0
0 0.25 0
0.0625 0.25 0
0 0.3125 0
0.0625 0.3125 0
-0.125 0.375 0
-0.0625 0.375 0
-0.125 0.4375 0
-0.0625 0.4375 0
0.125 0.125 0
0.1875 0.125 0
0.125 0.1875 0
0.1875 0.1875 0
0.5 -0.5 0
0.5625 -0.5 0
0.5 -0.4375 0
0.5625 -0.4375 0
0.5625 -0.5 0
0.625 -0.5 0
0.5625 -0.4375 0
0.625 -0.4375 0
0.5 -0.4375 0
0.5625 -0.4375 0
0.5 -0.375 0
0.5625 -0.375 0
0.5625 -0.4375 0
0.625 -0.4375 0
0.5625 -0.375 0
0.625 -0.375 0
0.625 -0.5 0
0.6875 -0.5 0
0.625 -0.4375 0
0.6875 -0.4375 0
0.6875 -0.5 0
0.75 -0.5 0
0.6875 -0.4375 0
0.75 -0.4375 0
0.625 -0.4375 0
0.6875 -0.4375 0
0.625 -0.375 0
0.6875 -0.375 0
0.6875 -0.4375 0
0.75 -0.4375 0
0.6875 -0.375 0
0.75 -0.375 0
0.5 -0.375 0
0.5625 -0.375 0
0.5 -0.3125 0
0.5625 -0.3125 0
0.5625 -0.375 0
0.625 -0.375 0
0.5625 -0.3125 0
0.625 -0.3125 0
0.5 -0.3125 0
0.5625 -0.3125 0
0.5 -0.25 0
0.5625 -0.25 0
0.5625 -0.3125 0
0.625 -0.3125 0
0.5625 -0.25 0
0.625 -0.25 0
-0.5 0.5 0
-0.4375 0.5 0
-0.5 0.5625 0
-0.4375 0.5625 0
-0.4375 0.5 0
-0.375 0.5 0
-0.4375 0.5625 0
-0.375 0.5625 0
-0.5 0.5625 0
-0.4375 0.5625 0
-0.5 0.625 0
-0.4375 0.625 0
-0.4375 0.5625 0
-0.375 0.5625 0
-0.4375 0.625 0
-0.375 0.625 0
-0.375 0.5 0
-0.3125 0.5 0
-0.375 0.5625 0
-0.3125 0.5625 0
-0.3125 0.5 0
-0.25 0.5 0
-0.3125 0.5625 0
-0.25 0.5625 0
-0.375 0.5625 0
-0.3125 0.5625 0
-0.375 0.625 0
-0.3125 0.625 0
-0.3125 0.5625 0
-0.25 0.5625 0
-0.3125 0.625 0
-0.25 0.625 0
-0.5 0.625 0
-0.4375 0.625 0
-0.5 0.6875 0
-0.4375 0.6875 0
-0.4375 0.625 0
-0.375 0.625 0
-0.4375 0.6875 0
-0.375 0.6875 0
-0.5 0.6875 0
-0.4375 0.6875 0
-0.5 0.75 0
-0.4375 0.75 0
-0.4375 0.6875 0
-0.375 0.6875 0
-0.4375 0.75 0
-0.375 0.75 0
-0.125 -0.25 0
-0.0625 -0.25 0
-0.125 -0.1875 0
-0.0625 -0.1875 0
-0.0625 -0.25 0
0 -0.25 0
-0.0625 -0.1875 0
0 -0.1875 0
-0.125 -0.1875 0
-0.0625 -0.1875 0
-0.125 -0.125 0
-0.0625 -0.125 0
-0.0625 -0.1875 0
0 -0.1875 0
-0.0625 -0.125 0
0 -0.125 0
-0.25 -0.125 0
-0.1875 -0.125 0
-0.25 -0.0625 0
-0.1875 -0.0625 0
-0.1875 -0.125 0
-0.125 -0.125 0
-0.1875 -0.0625 0
-0.125 -0.0625 0
-0.25 -0.0625 0
-0.1875 -0.0625 0
-0.25 0 0
-0.1875 0 0
-0.1875 -0.0625 0
-0.125 -0.0625 0
-0.1875 0 0
-0.125 0 0
-0.125 -0.125 0
-0.0625 -0.125 0
-0.125 -0.0625 0
-0.0625 -0.0625 0
-0.0625 -0.125 0
0 -0.125 0
-0.0625 -0.0625 0
0 -0.0625 0
-0.125 -0.0625 0
-0.0625 -0.0625 0
-0.125 0 0
-0.0625 0 0
-0.0625 -0.0625 0
0 -0.0625 0
-0.0625 0 0
0 0 0
0.375 -0.75 0
0.4375 -0.75 0
0.375 -0.6875 0
0.4375 -0.6875 0
0.4375 -0.75 0
0.5 -0.75 0
0.4375 -0.6875 0
0.5 -0.6875 0
0.375 -0.6875 0
0.4375 -0.6875 0
0.375 -0.625 0
0.4375 -0.625 0
0.4375 -0.6875 0
0.5 -0.6875 0
0.4375 -0.625 0
0.5 -0.625 0
0.25 -0.625 0
0.3125 -0.625 0
0.25 -0.5625 0
0.3125 -0.5625 0
0.3125 -0.625 0
0.375 -0.625 0
0.3125 -0.5625 0
0.375 -0.5625 0
0.25 -0.5625 0
0.3125 -0.5625 0
0.25 -0.5 0
0.3125 -0.5 0
0.3125 -0.5625 0
0.375 -0.5625 0
0.3125 -0.5 0
0.375 -0.5 0
0.375 -0.625 0
0.4375 -0.625 0
0.375 -0.5625 0
0.4375 -0.5625 0
0.4375 -0.625 0
0.5 -0.625 0
0.4375 -0.5625 0
0.5 -0.5625 0
0.375 -0.5625 0
0.4375 -0.5625 0
0.375 -0.5 0
0.4375 -0.5 0
0.4375 -0.5625 0
0.5 -0.5625 0
0.4375 -0.5 0
0.5 -0.5 0
0.75 -1 0
0.8125 -1 0
0.75 -0.9375 0
0.8125 -0.9375 0
0.8125 -1 0
0.875 -1 0
0.8125 -0.9375 0
0.875 -0.9375 0
0.75 -0.9375 0
0.8125 -0.9375 0
0.75 -0.875 0
0.8125 -0.875 0
0.8125 -0.9375 0
0.875 -0.9375 0
0.8125 -0.875 0
0.875 -0.875 0
0.75 -0.875 0
0.8125 -0.875 0
0.75 -0.8125 0
0.8125 -0.8125 0
0.8125 -0.875 0
0.875 -0.875 0
0.8125 -0.8125 0
0.875 -0.8125 0
0.75 -0.8125 0
0.8125 -0.8125 0
0.75 -0.75 0
0.8125 -0.75 0
0.8125 -0.8125 0
0.875 -0.8125 0
0.8125 -0.75 0
0.875 -0.75 0
0.875 -0.875 0
0.9375 -0.875 0
0.875 -0.8125 0
0.9375 -0.8125 0
0.9375 -0.875 0
1 -0.875 0
0.9375 -0.8125 0
1 -0.8125 0
0.875 -0.8125 0
0.9375 -0.8125 0
0.875 -0.75 0
0.9375 -0.75 0
0.9375 -0.8125 0
1 -0.8125 0
0.9375 -0.75 0
1 -0.75 0
0.5 -0.75 0
0.5625 -0.75 0
0.5 -0.6875 0
0.5625 -0.6875 0
0.5625 -0.75 0
0.625 -0.75 0
0.5625 -0.6875 0
0.625 -0.6875 0
0.5 -0.6875 0
0.5625 -0.6875 0
0.5 -0.625 0
0.5625 -0.625 0
0.5625 -0.6875 0
0.625 -0.6875 0
0.5625 -0.625 0
0.625 -0.625 0
0.625 -0.75 0
0.6875 -0.75 0
0.625 -0.6875 0
0.6875 -0.6875 0
0.6875 -0.75 0
0.75 -0.75 0
0.6875 -0.6875 0
0.75 -0.6875 0
0.625 -0.6875 0
0.6875 -0.6875 0
0.625 -0.625 0
0.6875 -0.625 0
0.6875 -0.6875 0
0.75 -0.6875 0
0.6875 -0.625 0
0.75 -0.625 0
0.5 -0.625 0
0.5625 -0.625 0
0.5 -0.5625 0
0.5625 -0.5625 0
0.5625 -0.625 0
0.625 -0.625 0
0.5625 -0.5625 0
0.625 -0.5625 0
0.5 -0.5625 0
0.5625 -0.5625 0
0.5 -0.5 0
0.5625 -0.5 0
0.5625 -0.5625 0
0.625 -0.5625 0
0.5625 -0.5 0
0.625 -0.5 0
0.625 -0.625 0
0.6875 -0.625 0
0.625 -0.5625 0
0.6875 -0.5625 0
0.6875 -0.625 0
0.75 -0.625 0
0.6875 -0.5625 0
0.75 -0.5625 0
0.625 -0.5625 0
0.6875 -0.5625 0
0.625 -0.5 0
0.6875 -0.5 0
0.6875 -0.5625 0
0.75 -0.5625 0
0.6875 -0.5 0
0.75 -0.5 0
0.75 -0.75 0
0.8125 -0.75 0
0.75 -0.6875 0
0.8125 -0.6875 0
0.8125 -0.75 0
0.875 -0.75 0
0.8125 -0.6875 0
0.875 -0.6875 0
0.75 -0.6875 0
0.8125 -0.6875 0
0.75 -0.625 0
0.8125 -0.625 0
0.8125 -0.6875 0
0.875 -0.6875 0
0.8125 -0.625 0
0.875 -0.625 0
0.875 -0.75 0
0.9375 -0.75 0
0.875 -0.6875 0
0.9375 -0.6875 0
0.9375 -0.75 0
1 -0.75 0
0.9375 -0.6875 0
1 -0.6875 0
0.875 -0.6875 0
0.9375 -0.6875 0
0.875 -0.625 0
0.9375 -0.625 0
0.9375 -0.6875 0
1 -0.6875 0
0.9375 -0.625 0
1 -0.625 0
0.75 -0.625 0
0.8125 -0.625 0
0.75 -0.5625 0
0.8125 -0.5625 0
0.8125 -0.625 0
0.875 -0.625 0
0.8125 -0.5625 0
0.875 -0.5625 0
0.75 -0.5625 0
0.8125 -0.5625 0
0.75 -0.5 0
0.8125 -0.5 0
0.9375 -0.625 0
1 -0.625 0
0.9375 -0.5625 0
1 -0.5625 0
0.9375 -0.5625 0
1 -0.5625 0
0.9375 -0.5 0
1 -0.5 0
0.125 -0.5 0
0.1875 -0.5 0
0.125 -0.4375 0
0.1875 -0.4375 0
0.1875 -0.5 0
0.25 -0.5 0
0.1875 -0.4375 0
0.25 -0.4375 0
0.125 -0.4375 0
0.1875 -0.4375 0
0.125 -0.375 0
0.1875 -0.375 0
0.1875 -0.4375 0
0.25 -0.4375 0
0.1875 -0.375 0
0.25 -0.375 0
0 -0.375 0
0.0625 -0.375 0
0 -0.3125 0
0.0625 -0.3125 0
0.0625 -0.375 0
0.125 -0.375 0
0.0625 -0.3125 0
0.125 -0.3125 0
0 -0.3125 0
0.0625 -0.3125 0
0 -0.25 0
0.0625 -0.25 0
0.0625 -0.3125 0
0.125 -0.3125 0
0.0625 -0.25 0
0.125 -0.25 0
0.125 -0.375 0
0.1875 -0.375 0
0.125 -0.3125 0
0.1875 -0.3125 0
0.1875 -0.375 0
0.25 -0.375 0
0.1875 -0.3125 0
0.25 -0.3125 0
0.125 -0.3125 0
0.1875 -0.3125 0
0.125 -0.25 0
0.1875 -0.25 0
0.1875 -0.3125 0
0.25 -0.3125 0
0.1875 -0.25 0
0.25 -0.25 0
0.25 -0.5 0
0.3125 -0.5 0
0.25 -0.4375 0
0.3125 -0.4375 0
0.3125 -0.5 0
0.375 -0.5 0
0.3125 -0.4375 0
0.375 -0.4375 0
0.25 -0.4375 0
0.3125 -0.4375 0
0.25 -0.375 0
0.3125 -0.375 0
0.3125 -0.4375 0
0.375 -0.4375 0
0.3125 -0.375 0
0.375 -0.375 0
0.375 -0.5 0
0.4375 -0.5 0
0.375 -0.4375 0
0.4375 -0.4375 0
0.4375 -0.5 0
0.5 -0.5 0
0.4375 -0.4375 0
0.5 -0.4375 0
0.375 -0.4375 0
0.4375 -0.4375 0
0.375 -0.375 0
0.4375 -0.375 0
0.4375 -0.4375 0
0.5 -0.4375 0
0.4375 -0.375 0
0.5 -0.375 0
0.25 -0.375 0
0.3125 -0.375 0
0.25 -0.3125 0
0.3125 -0.3125 0
0.3125 -0.375 0
0.375 -0.375 0
0.3125 -0.3125 0
0.375 -0.3125 0
0.25 -0.3125 0
0.3125 -0.3125 0
0.25 -0.25 0
0.3125 -0.25 0
0.3125 -0.3125 0
0.375 -0.3125 0
0.3125 -0.25 0
0.375 -0.25 0
0.375 -0.375 0
0.4375 -0.375 0
0.375 -0.3125 0
0.4375 -0.3125 0
0.4375 -0.375 0
0.5 -0.375 0
0.4375 -0.3125 0
0.5 -0.3125 0
0.375 -0.3125 0
0.4375 -0.3125 0
0.375 -0.25 0
0.4375 -0.25 0
0.4375 -0.3125 0
0.5 -0.3125 0
0.4375 -0.25 0
0.5 -0.25 0
0 -0.25 0
0.0625 -0.25 0
0 -0.1875 0
0.0625 -0.1875 0
0.0625 -0.25 0
0.125 -0.25 0
0.0625 -0.1875 0
0.125 -0.1875 0
0 -0.1875 0
0.0625 -0.1875 0
0 -0.125 0
0.0625 -0.125 0
0.0625 -0.1875 0
0.125 -0.1875 0
0.0625 -0.125 0
0.125 -0.125 0
0.125 -0.25 0
0.1875 -0.25 0
0.125 -0.1875 0
0.1875 -0.1875 0
0.1875 -0.25 0
0.25 -0.25 0
0.1875 -0.1875 0
0.25 -0.1875 0
0.125 -0.1875 0
0.1875 -0.1875 0
0.125 -0.125 0
0.1875 -0.125 0
0.1875 -0.1875 0
0.25 -0.1875 0
0.1875 -0.125 0
0.25 -0.125 0
0 -0.125 0
0.0625 -0.125 0
0 -0.0625 0
0.0625 -0.0625 0
0.0625 -0.125 0
0.125 -0.125 0
0.0625 -0.0625 0
0.125 -0.0625 0
0 -0.0625 0
[...]
POINT_DATA 8392
SCALARS solution double 1
LOOKUP_TABLE default
0.286505 0.324652 0.324525 0.367781 0.324652 0.367879 0.367781 0.416701 0.286428 0.324489 0.324476 0.367833 0.286428 0.324476 0.324489 0.367833 0.286505 0.324525 0.324652 0.367781 0.324652 0.367781 0.367879 0.416701 0.173774 0.196912 0.196898 0.223105 0.196912 0.22313 0.223105 0.252796 0.196898 0.223105 0.223098 0.252779 0.223105 0.252796 0.252779 0.286428 0.173774 0.196898 0.196912 0.223105 0.196898 0.223098 0.223105 0.252779 0.196912 0.223105 0.22313 0.252796 0.223105 0.252779 0.252796 0.286428 0.223098 0.252779 0.252779 0.28642 0.252779 0.286428 0.28642 0.324476 0.252779 0.28642 0.286428 0.324476 0.28642 0.324476 0.324476 0.367829 0.22313 0.25284 0.252796 0.286453 0.25284 0.286505 0.286453 0.324525 0.252796 0.286453 0.286428 0.324489 0.286453 0.324525 0.324489 0.367844 0.22313 0.252796 0.25284 0.286453 0.252796 0.286428 0.286453 0.324489 0.25284 0.286453 0.286505 0.324525 0.286453 0.324489 0.324525 0.367844 0.135335 0.153355 0.153355 0.173769 0.153355 0.173774 0.173769 0.196898 0.153355 0.173769 0.173774 0.196898 0.173769 0.196898 0.196898 0.223098 1.28388 1.36662 1.36661 1.45491 1.28388 1.36662 1.36662 1.45491 1.28388 1.36661 1.36662 1.45491 1.28388 1.36662 1.36662 1.45492 1.28389 1.36663 1.36663 1.45493 1.28389 1.36663 1.36663 1.45493 1.28389 1.36663 1.36662 1.45492 1.28389 1.36663 1.36663 1.45493 0.999937 1.06441 1.06441 1.13305 1.06441 1.13305 1.13305 1.2061 1.06441 1.13305 1.13304 1.2061 1.13305 1.2061 1.2061 1.28388 1.13305 1.20611 1.2061 1.28389 1.20611 1.28385 1.28389 1.36669 1.2061 1.28389 1.28388 1.36662 1.28389 1.36669 1.36662 1.45489 1.13304 1.2061 1.2061 1.28388 1.2061 1.28388 1.28388 1.36661 1.2061 1.28388 1.28388 1.36662 1.28388 1.36661 1.36662 1.45491 0.999937 1.06441 1.06441 1.13304 1.06441 1.13304 1.13304 1.2061 1.06441 1.13304 1.13305 1.2061 1.13304 1.2061 1.2061 1.28388 1.13304 1.2061 1.2061 1.28388 1.2061 1.28388 1.28388 1.36662 1.2061 1.28388 1.28388 1.36661 1.28388 1.36662 1.36661 1.45491 1.13305 1.2061 1.20611 1.28389 1.2061 1.28388 1.28389 1.36662 1.20611 1.28389 1.28385 1.36669 1.28389 1.36662 1.36669 1.45489 0.687341 0.731651 0.731652 0.778821 0.731651 0.77882 0.778821 0.829032 0.731652 0.778821 0.778821 0.829033 0.778821 0.829032 0.829033 0.882482 0.687341 0.731652 0.731651 0.778821 0.731652 0.778821 0.778821 0.829033 0.731651 0.778821 0.77882 0.829032 0.778821 0.829033 0.829032 0.882482 0.778821 0.829033 0.829033 0.882483 0.829033 0.882482 0.882483 0.93938 0.829033 0.882483 0.882482 0.93938 0.882483 0.93938 0.93938 0.999948 0.6873 0.731616 0.731621 0.778794 0.731616 0.778793 0.778794 0.829012 0.731621 0.778794 0.778798 0.829012 0.778794 0.829012 0.829012 0.882468 0.687316 0.731627 0.731633 0.778802 0.731627 0.778798 0.778802 0.829015 0.731633 0.778802 0.778807 0.829018 0.778802 0.829015 0.829018 0.882468 0.778798 0.829012 0.829015 0.882467 0.829012 0.882468 0.882467 0.939368 0.829015 0.882467 0.882468 0.939367 0.882467 0.939368 0.939367 0.999937 0.778801 0.829029 0.829028 0.882496 0.829029 0.882497 0.882496 0.939413 0.829028 0.882496 0.882491 0.939408 0.882496 0.939413 0.939408 0.999997 0.882491 0.939408 0.939399 0.999988 0.939408 0.999997 0.999988 1.06449 0.939399 0.999988 0.999974 1.06447 0.999988 1.06449 1.06447 1.13313 0.999997 1.06449 1.06449 1.13314 1.06449 1.13315 1.13314 1.20623 1.06449 1.13314 1.13313 1.20622 1.13314 1.20623 1.20622 1.28403 0.778793 0.829014 0.829012 0.882471 0.829014 0.882477 0.882471 0.939379 0.829012 0.882471 0.882468 0.939372 0.882471 0.939379 0.939372 0.999948 0.882477 0.939389 0.939379 0.99996 0.939389 0.999974 0.99996 1.06445 0.939379 0.99996 0.999948 1.06443 0.99996 1.06445 1.06443 1.13308 0.882468 0.939372 0.939368 0.999941 0.939372 0.999948 0.999941 1.06442 0.939368 0.999941 0.999937 1.06441 0.999941 1.06442 1.06441 1.13305 0.999948 1.06443 1.06442 1.13306 1.06443 1.13308 1.13306 1.20614 1.06442 1.13306 1.13305 1.20611 1.13306 1.20614 1.20611 1.28385 0.999974 1.06447 1.06445 1.1331 1.06447 1.13313 1.1331 1.20619 1.06445 1.1331 1.13308 1.20617 1.1331 1.20619 1.20617 1.28395 1.13313 1.20622 1.20619 1.284 1.20622 1.28403 1.284 1.36684 1.20619 1.284 1.28395 1.36679 1.284 1.36684 1.36679 1.45499 1.13308 1.20617 1.20614 1.28389 1.20617 1.28395 1.28389 1.36686 1.20614 1.28389 1.28385 1.36681 1.36679 1.45499 1.45495 1.54883 1.45495 1.54883 1.54872 1.64872 0.68733 0.731639 0.731644 0.778811 0.731639 0.778807 0.778811 0.829022 0.731644 0.778811 0.778815 0.829025 0.778811 0.829022 0.829025 0.882474 0.687338 0.731647 0.73165 0.778818 0.731647 0.778815 0.778818 0.829028 0.73165 0.778818 0.77882 0.82903 0.778818 0.829028 0.82903 0.882479 0.778815 0.829025 0.829028 0.882477 0.829025 0.882474 0.882477 0.939373 0.829028 0.882477 0.882479 0.939375 0.882477 0.939373 0.939375 0.999941 0.778807 0.829018 0.829022 0.882471 0.829018 0.882468 0.882471 0.939368 0.829022 0.882471 0.882474 0.939371 0.882471 0.939368 0.939371 0.999937 0.882468 0.939367 0.939368 0.999936 0.939367 0.999937 0.999936 1.06441 0.939368 0.999936 0.999937 1.06441 0.999936 1.06441 1.06441 1.13304 0.882474 0.939371 0.939373 0.999939 0.939371 0.999937 0.999939 1.06441 0.939373 0.999939 0.999941 1.06441 0.999939 1.06441 1.06441 1.13305 0.999937 1.06441 1.06441 1.13304 1.06441 1.13304 1.13304 1.2061 1.06441 1.13304 1.13305 1.2061 1.13304 1.2061 1.2061 1.28388 0.77882 0.82903 0.829032 0.882481 0.82903 0.882479 0.882481 0.939378 0.829032 0.882481 0.882482 0.939379 0.882481 0.939378 0.939379 0.999946 0.882479 0.939375 0.939378 0.999944 0.939375 0.999941 0.999944 1.06442 0.939378 0.999944 0.999946 1.06442 0.999944 1.06442 1.06442 1.13305 0.882482 0.939379 0.93938 0.999947 0.939379 0.999946 0.999947 1.06442 0.93938 0.999947 0.999948 1.06442 0.999947 1.06442 1.06442 1.13305 0.999946 1.06442 1.06442 1.13305 1.06442 1.13305 1.13305 1.20611 1.06442 1.13305 1.13305 1.20611 1.13305 1.20611 1.20611 1.28389 0.999941 1.06441 1.06442 1.13304 1.06441 1.13305 1.13304 1.2061 1.06442 1.13304 1.13305 1.20611 1.13304 1.2061 1.20611 1.28384 1.13305 1.2061 1.2061 1.28388 1.2061 1.28388 1.28388 1.36662 1.2061 1.28388 1.28384 1.36669 1.28388 1.36662 1.36669 1.4549 1.13305 1.20611 1.20611 1.28389 1.20611 1.28384 1.28389 1.36669 1.20611 1.28389 1.28389 1.36663 1.28389 1.36669 1.36663 1.45491 0.687316 0.731633 0.731627 0.778802 0.731633 0.778807 0.778802 0.829018 0.731627 0.778802 0.778798 0.829014 0.778802 0.829018 0.829014 0.882468 0.6873 0.731621 0.731616 0.778794 0.731621 0.778798 0.778794 0.829012 0.731616 0.778794 0.778793 0.829012 0.778794 0.829012 0.829012 0.882468 0.778798 0.829014 0.829012 0.882467 0.829014 0.882468 0.882467 0.939367 0.829012 0.882467 0.882468 0.939368 0.882467 0.939367 0.939368 0.999937 0.687338 0.73165 0.731648 0.778818 0.73165 0.77882 0.778818 0.82903 0.731648 0.778818 0.778815 0.829028 0.778818 0.82903 0.829028 0.882479 0.68733 0.731644 0.731639 0.778811 0.731644 0.778815 0.778811 0.829025 0.731639 0.778811 0.778807 0.829022 0.778811 0.829025 0.829022 0.882474 0.778815 0.829028 0.829025 0.882477 0.829028 0.882479 0.882477 0.939376 0.829025 0.882477 0.882474 0.939373 0.882477 0.939376 0.939373 0.999942 0.77882 0.829032 0.82903 0.882481 0.829032 0.882482 0.882481 0.939379 0.82903 0.882481 0.882479 0.939378 0.882481 0.939379 0.939378 0.999946 0.882482 0.93938 0.939379 0.999947 0.93938 0.999948 0.999947 1.06442 0.939379 0.999947 0.999946 1.06442 0.999947 1.06442 1.06442 1.13305 0.882479 0.939378 0.939376 0.999944 0.939378 0.999946 0.999944 1.06442 0.939376 0.999944 0.999942 1.06442 0.999944 1.06442 1.06442 1.13305 0.999946 1.06442 1.06442 1.13305 1.06442 1.13305 1.13305 1.20611 1.06442 1.13305 1.13305 1.20611 1.13305 1.20611 1.20611 1.28389 0.778807 0.829022 0.829018 0.882471 0.829022 0.882474 0.882471 0.939371 0.829018 0.882471 0.882468 0.939368 0.882471 0.939371 0.939368 0.999937 0.882474 0.939373 0.939371 0.99994 0.939373 0.999942 0.99994 1.06441 0.939371 0.99994 0.999937 1.06441 0.99994 1.06441 1.06441 1.13305 0.882468 0.939368 0.939367 0.999936 0.939368 0.999937 0.999936 1.06441 0.939367 0.999936 0.999937 1.06441 0.999936 1.06441 1.06441 1.13304 0.999937 1.06441 1.06441 1.13304 1.06441 1.13305 1.13304 1.2061 1.06441 1.13304 1.13304 1.2061 1.13304 1.2061 1.2061 1.28388 0.999942 1.06442 1.06441 1.13305 1.06442 1.13305 1.13305 1.2061 1.06441 1.13305 1.13305 1.2061 1.13305 1.2061 1.2061 1.28389 1.13305 1.20611 1.2061 1.28389 1.20611 1.28389 1.28389 1.36663 1.2061 1.28389 1.28389 1.36663 1.28389 1.36663 1.36663 1.45493 1.13305 1.2061 1.2061 1.28388 1.2061 1.28389 1.28388 1.36662 1.2061 1.28388 1.28388 1.36662 1.28388 1.36662 1.36662 1.45492 0.778793 0.829012 0.829014 0.882471 0.829012 0.882468 0.882471 0.939372 0.829014 0.882471 0.882477 0.939379 0.882471 0.939372 0.939379 0.999948 0.882468 0.939368 0.939372 0.999941 0.939368 0.999937 0.999941 1.06441 0.939372 0.999941 0.999948 1.06442 0.999941 1.06441 1.06442 1.13305 0.882477 0.939379 0.939389 0.99996 0.939379 0.999948 0.99996 1.06443 0.939389 0.99996 0.999974 1.06445 0.99996 1.06443 1.06445 1.13308 0.999948 1.06442 1.06443 1.13306 1.06442 1.13305 1.13306 1.20611 1.06443 1.13306 1.13308 1.20614 1.13306 1.20611 1.20614 1.28385 0.778801 0.829028 0.829029 0.882496 0.829028 0.882491 0.882496 0.939408 0.829029 0.882496 0.882497 0.939413 0.882496 0.939408 0.939413 0.999997 0.882491 0.939399 0.939408 0.999988 0.939399 0.999974 0.999988 1.06447 0.939408 0.999988 0.999997 1.06449 0.999988 1.06447 1.06449 1.13313 0.999997 1.06449 1.06449 1.13314 1.06449 1.13313 1.13314 1.20622 1.06449 1.13314 1.13315 1.20623 1.13314 1.20622 1.20623 1.28403 0.999974 1.06445 1.06447 1.1331 1.06445 1.13308 1.1331 1.20617 1.06447 1.1331 1.13313 1.20619 1.1331 1.20617 1.20619 1.28395 1.13308 1.20614 1.20617 1.28389 1.20614 1.28385 1.28389 1.36681 1.20617 1.28389 1.28395 1.36686 1.13313 1.20619 1.20622 1.284 1.20619 1.28395 1.284 1.36679 1.20622 1.284 1.28403 1.36684 1.284 1.36679 1.36684 1.45499 1.36679 1.45495 1.45499 1.54883 1.45495 1.54872 1.54883 1.64872 0.999948 1.06442 1.06442 1.13305 1.06442 1.13305 1.13305 1.20611 1.06442 1.13305 1.13305 1.20611 1.13305 1.20611 1.20611 1.28389 1.13305 1.20611 1.20611 1.28389 1.20611 1.28389 1.28389 1.36663 1.20611 1.28389 1.28389 1.36663 1.28389 1.36663 1.36663 1.45493 1.13305 1.20611 1.20611 1.28389 1.20611 1.28389 1.28389 1.36663 1.20611 1.28389 1.28389 1.36663 1.28389 1.36663 1.36663 1.45493 0.687291 0.731614 0.731614 0.778794 0.731614 0.778797 0.778794 0.829019 0.731614 0.778794 0.778793 0.829014 0.778794 0.829019 0.829014 0.882477 0.778797 0.829023 0.829019 0.882484 0.829023 0.882491 0.882484 0.939399 0.829019 0.882484 0.882477 0.939389 0.882484 0.939399 0.939389 0.999974 0.687291 0.731614 0.731614 0.778794 0.731614 0.778793 0.778794 0.829014 0.731614 0.778794 0.778797 0.829019 0.778794 0.829014 0.829019 0.882477 0.778797 0.829019 0.829023 0.882484 0.829019 0.882477 0.882484 0.939389 0.829023 0.882484 0.882491 0.939399 0.882484 0.939389 0.939399 0.999974 0.606611 0.645715 0.645715 0.687341 0.645715 0.687341 0.687341 0.731652 0.645715 0.687341 0.687341 0.731652 0.687341 0.731652 0.731652 0.778821 0.606566 0.64567 0.645681 0.687307 0.64567 0.6873 0.687307 0.731621 0.645681 0.687307 0.687316 0.731627 0.687307 0.731621 0.731627 0.778798 0.882497 0.939413 0.939413 1 0.939413 1 1 1.06449 0.939413 1 0.999997 1.06449 1 1.06449 1.06449 1.13315 0.606606 0.645707 0.645711 0.687335 0.645707 0.68733 0.687335 0.731644 0.645711 0.687335 0.687338 0.731647 0.687335 0.731644 0.731647 0.778815 0.606566 0.645681 0.64567 0.687307 0.645681 0.687316 0.687307 0.731627 0.64567 0.687307 0.6873 0.731621 0.687307 0.731627 0.731621 0.778798 0.606606 0.645711 0.645707 0.687335 0.645711 0.687338 0.687335 0.731648 0.645707 0.687335 0.68733 0.731644 0.687335 0.731648 0.731644 0.778815 0.882497 0.939413 0.939413 1 0.939413 0.999997 1 1.06449 0.939413 1 1 1.06449 1 1.06449 1.06449 1.13315 0.324525 0.346153 0.346184 0.36807 0.346153 0.367781 0.36807 0.391853 0.346184 0.36807 0.367844 0.391813 0.36807 0.391853 0.391813 0.417035 0.367781 0.392241 0.391853 0.417015 0.392241 0.416701 0.417015 0.443896 0.391853 0.417015 0.417035 0.443902 0.417015 0.443896 0.443902 0.472485 0.324489 0.346167 0.346161 0.368061 0.346167 0.367844 0.368061 0.391802 0.346161 0.368061 0.367833 0.391797 0.368061 0.391802 0.391797 0.417021 0.324476 0.346155 0.346152 0.368052 0.346155 0.367833 0.368052 0.391793 0.346152 0.368052 0.367829 0.391791 0.368052 0.391793 0.391791 0.417015 0.367833 0.391797 0.391793 0.416995 0.391797 0.417021 0.416995 0.443892 0.391793 0.416995 0.417015 0.44389 0.416995 0.443892 0.44389 0.472495 0.367844 0.391813 0.391802 0.417003 0.391813 0.417035 0.417003 0.443898 0.391802 0.417003 0.417021 0.443894 0.417003 0.443898 0.443894 0.472497 0.417035 0.443902 0.443898 0.472499 0.443902 0.472485 0.472499 0.502942 0.443898 0.472499 0.472497 0.502949 0.472499 0.502942 0.502949 0.53536 0.417021 0.443894 0.443892 0.472498 0.443894 0.472497 0.472498 0.50295 0.443892 0.472498 0.472495 0.50295 0.472498 0.50295 0.50295 0.535367 0.472497 0.502949 0.50295 0.535365 0.502949 0.53536 0.535365 0.56987 0.50295 0.535365 0.535367 0.569874 0.535365 0.56987 0.569874 0.606606 0.324476 0.346153 0.346155 0.368052 0.346153 0.367829 0.368052 0.391791 0.346155 0.368052 0.367833 0.391793 0.368052 0.391791 0.391793 0.417015 0.324489 0.346161 0.346167 0.368061 0.346161 0.367833 0.368061 0.391797 0.346167 0.368061 0.367844 0.391802 0.368061 0.391797 0.391802 0.417021 0.367833 0.391793 0.391797 0.416995 0.391793 0.417015 0.416995 0.44389 0.391797 0.416995 0.417021 0.443892 0.416995 0.44389 0.443892 0.472495 0.324525 0.346184 0.346153 0.36807 0.346184 0.367844 0.36807 0.391813 0.346153 0.36807 0.367781 0.391853 0.36807 0.391813 0.391853 0.417035 0.367781 0.391853 0.392241 0.417015 0.391853 0.417035 0.417015 0.443902 0.392241 0.417015 0.416701 0.443896 0.417015 0.443902 0.443896 0.472485 0.367844 0.391802 0.391813 0.417003 0.391802 0.417021 0.417003 0.443894 0.391813 0.417003 0.417035 0.443898 0.417003 0.443894 0.443898 0.472497 0.417021 0.443892 0.443894 0.472498 0.443892 0.472495 0.472498 0.50295 0.443894 0.472498 0.472497 0.50295 0.472498 0.50295 0.50295 0.535367 0.417035 0.443898 0.443902 0.472499 0.443898 0.472497 0.472499 0.502949 0.443902 0.472499 0.472485 0.502942 0.472499 0.502949 0.502942 0.53536 0.472497 0.50295 0.502949 0.535365 0.50295 0.535367 0.535365 0.569874 0.502949 0.535365 0.53536 0.56987 0.535365 0.569874 0.56987 0.606606 0.367829 0.391791 0.391791 0.416992 0.391791 0.417015 0.416992 0.443889 0.391791 0.416992 0.417015 0.443889 0.416992 0.443889 0.443889 0.472494 0.417015 0.44389 0.443889 0.472496 0.44389 0.472495 0.472496 0.50295 0.443889 0.472496 0.472494 0.502949 0.472496 0.50295 0.502949 0.535367 0.417015 0.443889 0.44389 0.472496 0.443889 0.472494 0.472496 0.502949 0.44389 0.472496 0.472495 0.50295 0.472496 0.502949 0.50295 0.535367 0.472494 0.502949 0.502949 0.535367 0.502949 0.535367 0.535367 0.569876 0.502949 0.535367 0.535367 0.569876 0.535367 0.569876 0.569876 0.606611 0.472495 0.50295 0.50295 0.535367 0.50295 0.535367 0.535367 0.569875 0.50295 0.535367 0.535367 0.569876 0.535367 0.569875 0.569876 0.60661 0.535367 0.569874 0.569875 0.606609 0.569874 0.606606 0.606609 0.645711 0.569875 0.606609 0.60661 0.645713 0.606609 0.645711 0.645713 0.687338 0.535367 0.569876 0.569876 0.606611 0.569876 0.60661 0.606611 0.645714 0.569876 0.606611 0.606611 0.645715 0.606611 0.645714 0.645715 0.687341 0.60661 0.645713 0.645714 0.68734 0.645713 0.687338 0.68734 0.73165 0.645714 0.68734 0.687341 0.731651 0.68734 0.73165 0.731651 0.77882 0.472495 0.50295 0.50295 0.535367 0.50295 0.535367 0.535367 0.569876 0.50295 0.535367 0.535367 0.569875 0.535367 0.569876 0.569875 0.60661 0.535367 0.569876 0.569876 0.606611 0.569876 0.606611 0.606611 0.645715 0.569876 0.606611 0.60661 0.645714 0.606611 0.645715 0.645714 0.687341 0.535367 0.569875 0.569874 0.606609 0.569875 0.60661 0.606609 0.645713 0.569874 0.606609 0.606606 0.645711 0.606609 0.645713 0.645711 0.687338 0.60661 0.645714 0.645713 0.68734 0.645714 0.687341 0.68734 0.731651 0.645713 0.68734 0.687338 0.73165 0.68734 0.731651 0.73165 0.77882 0.367879 0.391606 0.39229 0.416958 0.391606 0.416862 0.416958 0.443792 0.39229 0.416958 0.416701 0.443875 0.416958 0.443792 0.443875 0.472432 0.416862 0.443747 0.443792 0.472392 0.443747 0.472367 0.472392 0.502847 0.443792 0.472392 0.472432 0.502874 0.472392 0.502847 0.502874 0.535289 0.416701 0.443875 0.443896 0.472433 0.443875 0.472432 0.472433 0.502903 0.443896 0.472433 0.472485 0.502924 0.472433 0.502903 0.502924 0.535329 0.472432 0.502874 0.502903 0.535311 0.502874 0.535289 0.535311 0.569817 0.502903 0.535311 0.535329 0.569834 0.535311 0.569817 0.569834 0.606566 0.472367 0.502832 0.502847 0.535272 0.502832 0.535261 0.535272 0.56979 0.502847 0.535272 0.535289 0.569801 0.535272 0.56979 0.569801 0.606542 0.535261 0.569783 0.56979 0.606535 0.569783 0.606531 0.606535 0.64565 0.56979 0.606535 0.606542 0.645654 0.606535 0.64565 0.645654 0.687291 0.535289 0.569801 0.569817 0.606553 0.569801 0.606542 0.606553 0.645661 0.569817 0.606553 0.606566 0.64567 0.606553 0.645661 0.64567 0.6873 0.606542 0.645654 0.645661 0.687294 0.645654 0.687291 0.687294 0.731614 0.645661 0.687294 0.6873 0.731616 0.687294 0.731614 0.731616 0.778793 0.472485 0.502924 0.502942 0.535349 0.502924 0.535329 0.535349 0.56985 0.502942 0.535349 0.53536 0.569863 0.535349 0.56985 0.569863 0.606591 0.535329 0.569834 0.56985 0.606579 0.569834 0.606566 0.606579 0.645681 0.56985 0.606579 0.606591 0.645692 0.606579 0.645681 0.645692 0.687316 0.53536 0.569863 0.56987 0.6066 0.569863 0.606591 0.6066 0.6457 0.56987 0.6066 0.606606 0.645707 0.6066 0.6457 0.645707 0.68733 0.606591 0.645692 0.6457 0.687324 0.645692 0.687316 0.687324 0.731633 0.6457 0.687324 0.68733 0.731639 0.687324 0.731633 0.731639 0.778807 0.606531 0.645649 0.64565 0.687289 0.645649 0.687289 0.687289 0.731615 0.64565 0.687289 0.687291 0.731614 0.687289 0.731615 0.731614 0.778797 0.687289 0.731616 0.731615 0.778799 0.731616 0.778801 0.778799 0.829028 0.731615 0.778799 0.778797 0.829023 0.778799 0.829028 0.829023 0.882491 0.367879 0.39229 0.391606 0.416958 0.39229 0.416701 0.416958 0.443875 0.391606 0.416958 0.416862 0.443792 0.416958 0.443875 0.443792 0.472432 0.416701 0.443896 0.443875 0.472433 0.443896 0.472485 0.472433 0.502924 0.443875 0.472433 0.472432 0.502903 0.472433 0.502924 0.502903 0.535329 0.416862 0.443792 0.443747 0.472392 0.443792 0.472432 0.472392 0.502874 0.443747 0.472392 0.472367 0.502847 0.472392 0.502874 0.502847 0.535289 0.472432 0.502903 0.502874 0.535311 0.502903 0.535329 0.535311 0.569834 0.502874 0.535311 0.535289 0.569817 0.535311 0.569834 0.569817 0.606566 0.472485 0.502942 0.502924 0.535349 0.502942 0.53536 0.535349 0.569863 0.502924 0.535349 0.535329 0.56985 0.535349 0.569863 0.56985 0.606591 0.53536 0.56987 0.569863 0.6066 0.56987 0.606606 0.6066 0.645707 0.569863 0.6066 0.606591 0.6457 0.6066 0.645707 0.6457 0.68733 0.535329 0.56985 0.569834 0.606579 0.56985 0.606591 0.606579 0.645692 0.569834 0.606579 0.606566 0.645681 0.606579 0.645692 0.645681 0.687316 0.606591 0.6457 0.645692 0.687324 0.6457 0.68733 0.687324 0.731639 0.645692 0.687324 0.687316 0.731633 0.687324 0.731639 0.731633 0.778807 0.472367 0.502847 0.502832 0.535272 0.502847 0.535289 0.535272 0.569801 0.502832 0.535272 0.535261 0.56979 0.535272 0.569801 0.56979 0.606542 0.535289 0.569817 0.569801 0.606553 0.569817 0.606566 0.606553 0.64567 0.569801 0.606553 0.606542 0.645661 0.606553 0.64567 0.645661 0.6873 0.535261 0.56979 0.569783 0.606535 0.56979 0.606542 0.606535 0.645654 0.569783 0.606535 0.606531 0.64565 0.606535 0.645654 0.64565 0.687291 0.606542 0.645661 0.645654 0.687294 0.645661 0.6873 0.687294 0.731616 0.645654 0.687294 0.687291 0.731614 0.687294 0.731616 0.731614 0.778793 0.606531 0.64565 0.645649 0.687289 0.64565 0.687291 0.687289 0.731614 0.645649 0.687289 0.687289 0.731615 0.687289 0.731614 0.731615 0.778797 0.687289 0.731615 0.731616 0.778799 0.731615 0.778797 0.778799 0.829023 0.731616 0.778799 0.778801 0.829028 0.778799 0.829023 0.8