# vtk DataFile Version 3.0
#This file was generated by the deal.II library on 2020/3/18 at 17:32:13
ASCII
DATASET UNSTRUCTURED_GRID

POINTS 4264 double
-1 -1 0
-0.75 -1 0
-1 -0.75 0
-0.75 -0.75 0
-0.75 -1 0
-0.5 -1 0
-0.75 -0.75 0
-0.5 -0.75 0
-1 -0.75 0
-0.75 -0.75 0
-1 -0.5 0
-0.75 -0.5 0
-0.75 -0.75 0
-0.5 -0.75 0
-0.75 -0.5 0
-0.5 -0.5 0
-0.5 -1 0
-0.25 -1 0
-0.5 -0.75 0
-0.25 -0.75 0
-1 -0.5 0
-0.75 -0.5 0
-1 -0.25 0
-0.75 -0.25 0
-0.25 -0.25 0
0 -0.25 0
-0.25 0 0
0 0 0
0 -0.25 0
0.25 -0.25 0
0 0 0
0.25 0 0
-0.25 0 0
0 0 0
-0.25 0.25 0
0 0.25 0
-0.25 -0.75 0
-0.125 -0.75 0
-0.25 -0.625 0
-0.125 -0.625 0
-0.125 -0.75 0
0 -0.75 0
-0.125 -0.625 0
0 -0.625 0
-0.75 -0.25 0
-0.625 -0.25 0
-0.75 -0.125 0
-0.625 -0.125 0
-0.75 -0.125 0
-0.625 -0.125 0
-0.75 0 0
-0.625 0 0
-0.25 -0.375 0
-0.125 -0.375 0
-0.25 -0.25 0
-0.125 -0.25 0
-0.125 -0.375 0
0 -0.375 0
-0.125 -0.25 0
0 -0.25 0
-0.375 -0.25 0
-0.25 -0.25 0
-0.375 -0.125 0
-0.25 -0.125 0
-0.375 -0.125 0
-0.25 -0.125 0
-0.375 0 0
-0.25 0 0
0.25 -0.25 0
0.375 -0.25 0
0.25 -0.125 0
0.375 -0.125 0
0.25 -0.125 0
0.375 -0.125 0
0.25 0 0
0.375 0 0
0.625 -0.25 0
0.75 -0.25 0
0.625 -0.125 0
0.75 -0.125 0
-0.25 0.25 0
-0.125 0.25 0
-0.25 0.375 0
-0.125 0.375 0
-0.125 0.25 0
0 0.25 0
-0.125 0.375 0
0 0.375 0
-0.25 0.625 0
-0.125 0.625 0
-0.25 0.75 0
-0.125 0.75 0
0.25 0 0
0.375 0 0
0.25 0.125 0
0.375 0.125 0
0 0.25 0
0.125 0.25 0
0 0.375 0
0.125 0.375 0
-0.5 -0.75 0
-0.375 -0.75 0
-0.5 -0.625 0
-0.375 -0.625 0
-0.375 -0.75 0
-0.25 -0.75 0
-0.375 -0.625 0
-0.25 -0.625 0
-0.5 -0.625 0
-0.375 -0.625 0
-0.5 -0.5 0
-0.375 -0.5 0
-0.75 -0.5 0
-0.625 -0.5 0
-0.75 -0.375 0
-0.625 -0.375 0
-0.625 -0.5 0
-0.5 -0.5 0
-0.625 -0.375 0
-0.5 -0.375 0
-0.75 -0.375 0
-0.625 -0.375 0
-0.75 -0.25 0
-0.625 -0.25 0
0 -0.75 0
0.125 -0.75 0
0 -0.625 0
0.125 -0.625 0
0.125 -0.75 0
0.25 -0.75 0
0.125 -0.625 0
0.25 -0.625 0
0.25 -0.75 0
0.375 -0.75 0
0.25 -0.625 0
0.375 -0.625 0
0.375 -0.75 0
0.5 -0.75 0
0.375 -0.625 0
0.5 -0.625 0
0.5 -0.75 0
0.625 -0.75 0
0.5 -0.625 0
0.625 -0.625 0
0.625 -0.75 0
0.75 -0.75 0
0.625 -0.625 0
0.75 -0.625 0
0.625 -0.625 0
0.75 -0.625 0
0.625 -0.5 0
0.75 -0.5 0
0 -0.375 0
0.125 -0.375 0
0 -0.25 0
0.125 -0.25 0
0.125 -0.375 0
0.25 -0.375 0
0.125 -0.25 0
0.25 -0.25 0
0.25 -0.375 0
0.375 -0.375 0
0.25 -0.25 0
0.375 -0.25 0
-0.75 0 0
-0.625 0 0
-0.75 0.125 0
-0.625 0.125 0
-0.75 0.125 0
-0.625 0.125 0
-0.75 0.25 0
-0.625 0.25 0
-0.75 0.25 0
-0.625 0.25 0
-0.75 0.375 0
-0.625 0.375 0
-0.75 0.375 0
-0.625 0.375 0
-0.75 0.5 0
-0.625 0.5 0
-0.375 0 0
-0.25 0 0
-0.375 0.125 0
-0.25 0.125 0
-0.375 0.125 0
-0.25 0.125 0
-0.375 0.25 0
-0.25 0.25 0
-0.375 0.25 0
-0.25 0.25 0
-0.375 0.375 0
-0.25 0.375 0
-0.75 0.5 0
-0.625 0.5 0
-0.75 0.625 0
-0.625 0.625 0
-0.75 0.625 0
-0.625 0.625 0
-0.75 0.75 0
-0.625 0.75 0
-0.625 0.625 0
-0.5 0.625 0
-0.625 0.75 0
-0.5 0.75 0
0.75 -0.75 0
0.875 -0.75 0
0.75 -0.625 0
0.875 -0.625 0
0.875 -0.75 0
1 -0.75 0
0.875 -0.625 0
1 -0.625 0
0.75 -0.625 0
0.875 -0.625 0
0.75 -0.5 0
0.875 -0.5 0
0.875 -0.625 0
1 -0.625 0
0.875 -0.5 0
1 -0.5 0
0.75 -0.5 0
0.875 -0.5 0
0.75 -0.375 0
0.875 -0.375 0
0.875 -0.5 0
1 -0.5 0
0.875 -0.375 0
1 -0.375 0
0.875 -0.375 0
1 -0.375 0
0.875 -0.25 0
1 -0.25 0
-0.75 0.75 0
-0.625 0.75 0
-0.75 0.875 0
-0.625 0.875 0
-0.625 0.75 0
-0.5 0.75 0
-0.625 0.875 0
-0.5 0.875 0
-0.75 0.875 0
-0.625 0.875 0
-0.75 1 0
-0.625 1 0
-0.625 0.875 0
-0.5 0.875 0
-0.625 1 0
-0.5 1 0
-0.5 0.75 0
-0.375 0.75 0
-0.5 0.875 0
-0.375 0.875 0
-0.5 0.875 0
-0.375 0.875 0
-0.5 1 0
-0.375 1 0
-0.375 0.875 0
-0.25 0.875 0
-0.375 1 0
-0.25 1 0
-0.25 -1 0
-0.125 -1 0
-0.25 -0.875 0
-0.125 -0.875 0
-0.125 -1 0
0 -1 0
-0.125 -0.875 0
0 -0.875 0
-0.25 -0.875 0
-0.125 -0.875 0
-0.25 -0.75 0
-0.125 -0.75 0
-0.125 -0.875 0
0 -0.875 0
-0.125 -0.75 0
0 -0.75 0
-1 -0.25 0
-0.875 -0.25 0
-1 -0.125 0
-0.875 -0.125 0
-0.875 -0.25 0
-0.75 -0.25 0
-0.875 -0.125 0
-0.75 -0.125 0
-1 -0.125 0
-0.875 -0.125 0
-1 0 0
-0.875 0 0
-0.875 -0.125 0
-0.75 -0.125 0
-0.875 0 0
-0.75 0 0
0 -1 0
0.125 -1 0
0 -0.875 0
0.125 -0.875 0
0.125 -1 0
0.25 -1 0
0.125 -0.875 0
0.25 -0.875 0
0 -0.875 0
0.125 -0.875 0
0 -0.75 0
0.125 -0.75 0
0.125 -0.875 0
0.25 -0.875 0
0.125 -0.75 0
0.25 -0.75 0
0.25 -1 0
0.375 -1 0
0.25 -0.875 0
0.375 -0.875 0
0.375 -1 0
0.5 -1 0
0.375 -0.875 0
0.5 -0.875 0
0.25 -0.875 0
0.375 -0.875 0
0.25 -0.75 0
0.375 -0.75 0
0.375 -0.875 0
0.5 -0.875 0
0.375 -0.75 0
0.5 -0.75 0
0.5 -1 0
0.625 -1 0
0.5 -0.875 0
0.625 -0.875 0
0.625 -1 0
0.75 -1 0
0.625 -0.875 0
0.75 -0.875 0
0.5 -0.875 0
0.625 -0.875 0
0.5 -0.75 0
0.625 -0.75 0
0.625 -0.875 0
0.75 -0.875 0
0.625 -0.75 0
0.75 -0.75 0
0.75 -1 0
0.875 -1 0
0.75 -0.875 0
0.875 -0.875 0
0.875 -1 0
1 -1 0
0.875 -0.875 0
1 -0.875 0
0.75 -0.875 0
0.875 -0.875 0
0.75 -0.75 0
0.875 -0.75 0
0.875 -0.875 0
1 -0.875 0
0.875 -0.75 0
1 -0.75 0
-1 0 0
-0.875 0 0
-1 0.125 0
-0.875 0.125 0
-0.875 0 0
-0.75 0 0
-0.875 0.125 0
-0.75 0.125 0
-1 0.125 0
-0.875 0.125 0
-1 0.25 0
-0.875 0.25 0
-0.875 0.125 0
-0.75 0.125 0
-0.875 0.25 0
-0.75 0.25 0
-1 0.25 0
-0.875 0.25 0
-1 0.375 0
-0.875 0.375 0
-0.875 0.25 0
-0.75 0.25 0
-0.875 0.375 0
-0.75 0.375 0
-1 0.375 0
-0.875 0.375 0
-1 0.5 0
-0.875 0.5 0
-0.875 0.375 0
-0.75 0.375 0
-0.875 0.5 0
-0.75 0.5 0
-1 0.5 0
-0.875 0.5 0
-1 0.625 0
-0.875 0.625 0
-0.875 0.5 0
-0.75 0.5 0
-0.875 0.625 0
-0.75 0.625 0
-1 0.625 0
-0.875 0.625 0
-1 0.75 0
-0.875 0.75 0
-0.875 0.625 0
-0.75 0.625 0
-0.875 0.75 0
-0.75 0.75 0
-1 0.75 0
-0.875 0.75 0
-1 0.875 0
-0.875 0.875 0
-0.875 0.75 0
-0.75 0.75 0
-0.875 0.875 0
-0.75 0.875 0
-1 0.875 0
-0.875 0.875 0
-1 1 0
-0.875 1 0
-0.875 0.875 0
-0.75 0.875 0
-0.875 1 0
-0.75 1 0
0 0 0
0.125 0 0
0 0.125 0
0.125 0.125 0
0.125 0 0
0.25 0 0
0.125 0.125 0
0.25 0.125 0
0 0.125 0
0.125 0.125 0
0 0.25 0
0.125 0.25 0
0.125 0.125 0
0.25 0.125 0
0.125 0.25 0
0.25 0.25 0
-0.25 -0.625 0
-0.1875 -0.625 0
-0.25 -0.5625 0
-0.1875 -0.5625 0
-0.1875 -0.625 0
-0.125 -0.625 0
-0.1875 -0.5625 0
-0.125 -0.5625 0
-0.625 -0.25 0
-0.5625 -0.25 0
-0.625 -0.1875 0
-0.5625 -0.1875 0
-0.625 -0.1875 0
-0.5625 -0.1875 0
-0.625 -0.125 0
-0.5625 -0.125 0
-0.25 -0.4375 0
-0.1875 -0.4375 0
-0.25 -0.375 0
-0.1875 -0.375 0
-0.1875 -0.4375 0
-0.125 -0.4375 0
-0.1875 -0.375 0
-0.125 -0.375 0
-0.4375 -0.25 0
-0.375 -0.25 0
-0.4375 -0.1875 0
-0.375 -0.1875 0
-0.4375 -0.1875 0
-0.375 -0.1875 0
-0.4375 -0.125 0
-0.375 -0.125 0
0.375 -0.25 0
0.4375 -0.25 0
0.375 -0.1875 0
0.4375 -0.1875 0
0.375 -0.1875 0
0.4375 -0.1875 0
0.375 -0.125 0
0.4375 -0.125 0
0.375 -0.125 0
0.4375 -0.125 0
0.375 -0.0625 0
0.4375 -0.0625 0
0.375 -0.0625 0
0.4375 -0.0625 0
0.375 0 0
0.4375 0 0
0.5625 -0.25 0
0.625 -0.25 0
0.5625 -0.1875 0
0.625 -0.1875 0
0.5625 -0.1875 0
0.625 -0.1875 0
0.5625 -0.125 0
0.625 -0.125 0
0.5625 -0.125 0
0.625 -0.125 0
0.5625 -0.0625 0
0.625 -0.0625 0
0.5625 -0.0625 0
0.625 -0.0625 0
0.5625 0 0
0.625 0 0
-0.25 0.375 0
-0.1875 0.375 0
-0.25 0.4375 0
-0.1875 0.4375 0
-0.1875 0.375 0
-0.125 0.375 0
-0.1875 0.4375 0
-0.125 0.4375 0
-0.125 0.375 0
-0.0625 0.375 0
-0.125 0.4375 0
-0.0625 0.4375 0
-0.0625 0.375 0
0 0.375 0
-0.0625 0.4375 0
0 0.4375 0
-0.25 0.5625 0
-0.1875 0.5625 0
-0.25 0.625 0
-0.1875 0.625 0
-0.1875 0.5625 0
-0.125 0.5625 0
-0.1875 0.625 0
-0.125 0.625 0
-0.125 0.5625 0
-0.0625 0.5625 0
-0.125 0.625 0
-0.0625 0.625 0
-0.0625 0.5625 0
0 0.5625 0
-0.0625 0.625 0
0 0.625 0
0.375 0 0
0.4375 0 0
0.375 0.0625 0
0.4375 0.0625 0
0.375 0.0625 0
0.4375 0.0625 0
0.375 0.125 0
0.4375 0.125 0
0 0.375 0
0.0625 0.375 0
0 0.4375 0
0.0625 0.4375 0
0.0625 0.375 0
0.125 0.375 0
0.0625 0.4375 0
0.125 0.4375 0
0.25 0.25 0
0.3125 0.25 0
0.25 0.3125 0
0.3125 0.3125 0
0.4375 0.375 0
0.5 0.375 0
0.4375 0.4375 0
0.5 0.4375 0
0.375 0.4375 0
0.4375 0.4375 0
0.375 0.5 0
0.4375 0.5 0
0.4375 0.4375 0
0.5 0.4375 0
0.4375 0.5 0
0.5 0.5 0
0.5625 0 0
0.625 0 0
0.5625 0.0625 0
0.625 0.0625 0
0.5625 0.0625 0
0.625 0.0625 0
0.5625 0.125 0
0.625 0.125 0
0.5625 0.125 0
0.625 0.125 0
0.5625 0.1875 0
0.625 0.1875 0
0.5625 0.1875 0
0.625 0.1875 0
0.5625 0.25 0
0.625 0.25 0
0.5 0.25 0
0.5625 0.25 0
0.5 0.3125 0
0.5625 0.3125 0
0.5625 0.25 0
0.625 0.25 0
0.5625 0.3125 0
0.625 0.3125 0
0.5 0.3125 0
0.5625 0.3125 0
0.5 0.375 0
0.5625 0.375 0
0.5625 0.3125 0
0.625 0.3125 0
0.5625 0.375 0
0.625 0.375 0
0 0.5625 0
0.0625 0.5625 0
0 0.625 0
0.0625 0.625 0
0.0625 0.5625 0
0.125 0.5625 0
0.0625 0.625 0
0.125 0.625 0
0.125 0.5625 0
0.1875 0.5625 0
0.125 0.625 0
0.1875 0.625 0
0.1875 0.5625 0
0.25 0.5625 0
0.1875 0.625 0
0.25 0.625 0
0.25 0.5 0
0.3125 0.5 0
0.25 0.5625 0
0.3125 0.5625 0
0.3125 0.5 0
0.375 0.5 0
0.3125 0.5625 0
0.375 0.5625 0
0.25 0.5625 0
0.3125 0.5625 0
0.25 0.625 0
0.3125 0.625 0
0.3125 0.5625 0
0.375 0.5625 0
0.3125 0.625 0
0.375 0.625 0
-0.125 -0.625 0
-0.0625 -0.625 0
-0.125 -0.5625 0
-0.0625 -0.5625 0
-0.0625 -0.625 0
0 -0.625 0
-0.0625 -0.5625 0
0 -0.5625 0
-0.625 -0.125 0
-0.5625 -0.125 0
-0.625 -0.0625 0
-0.5625 -0.0625 0
-0.625 -0.0625 0
-0.5625 -0.0625 0
-0.625 0 0
-0.5625 0 0
-0.5 -0.5 0
-0.4375 -0.5 0
-0.5 -0.4375 0
-0.4375 -0.4375 0
-0.4375 -0.5 0
-0.375 -0.5 0
-0.4375 -0.4375 0
-0.375 -0.4375 0
-0.5 -0.4375 0
-0.4375 -0.4375 0
-0.5 -0.375 0
-0.4375 -0.375 0
-0.3125 -0.375 0
-0.25 -0.375 0
-0.3125 -0.3125 0
-0.25 -0.3125 0
-0.375 -0.3125 0
-0.3125 -0.3125 0
-0.375 -0.25 0
-0.3125 -0.25 0
-0.3125 -0.3125 0
-0.25 -0.3125 0
-0.3125 -0.25 0
-0.25 -0.25 0
-0.125 -0.4375 0
-0.0625 -0.4375 0
-0.125 -0.375 0
-0.0625 -0.375 0
-0.0625 -0.4375 0
0 -0.4375 0
-0.0625 -0.375 0
0 -0.375 0
-0.4375 -0.125 0
-0.375 -0.125 0
-0.4375 -0.0625 0
-0.375 -0.0625 0
-0.4375 -0.0625 0
-0.375 -0.0625 0
-0.4375 0 0
-0.375 0 0
0.625 0.125 0
0.6875 0.125 0
0.625 0.1875 0
0.6875 0.1875 0
0.6875 0.125 0
0.75 0.125 0
0.6875 0.1875 0
0.75 0.1875 0
0.625 0.1875 0
0.6875 0.1875 0
0.625 0.25 0
0.6875 0.25 0
0.6875 0.1875 0
0.75 0.1875 0
0.6875 0.25 0
0.75 0.25 0
0.625 0.25 0
0.6875 0.25 0
0.625 0.3125 0
0.6875 0.3125 0
0.6875 0.25 0
0.75 0.25 0
0.6875 0.3125 0
0.75 0.3125 0
0.625 0.3125 0
0.6875 0.3125 0
0.625 0.375 0
0.6875 0.375 0
0.6875 0.3125 0
[...]
POINT_DATA 4264
SCALARS solution double 1
LOOKUP_TABLE default
0.135335 0.173774 0.173774 0.301057 0.173774 0.22313 0.301057 0.439216 0.173774 0.301057 0.22313 0.439216 0.301057 0.439216 0.439216 0.685432 0.22313 0.286505 0.439216 0.573043 0.22313 0.439216 0.286505 0.573043 1.0676 1.09192 1.09192 1.12155 1.09192 1.11834 1.12155 1.15446 1.09192 1.12155 1.11834 1.15446 0.573043 0.628244 0.745671 0.813755 0.628244 0.669514 0.813755 0.852163 0.573043 0.745671 0.628244 0.813755 0.628244 0.813755 0.669514 0.852163 1.05629 1.06702 1.0676 1.07976 1.06702 1.07828 1.07976 1.09192 1.05629 1.0676 1.06702 1.07976 1.06702 1.07976 1.07828 1.09192 1.11834 1.13269 1.1364 1.15199 1.1364 1.15199 1.15446 1.17243 1.34713 1.56612 1.43839 1.72799 1.11834 1.1364 1.13269 1.15199 1.1364 1.15446 1.15199 1.17243 1.34713 1.43839 1.56612 1.72799 1.15446 1.17243 1.17426 1.19411 1.15446 1.17426 1.17243 1.19411 0.439216 0.506129 0.562324 0.655729 0.506129 0.573043 0.655729 0.745671 0.562324 0.655729 0.685432 0.821315 0.439216 0.562324 0.506129 0.655729 0.562324 0.685432 0.655729 0.821315 0.506129 0.655729 0.573043 0.745671 0.669514 0.70202 0.852163 0.869664 0.70202 0.733386 0.869664 0.878255 0.733386 0.773212 0.878255 0.898118 0.773212 0.830235 0.898118 0.945575 0.830235 0.909401 0.945575 1.02785 0.909401 1.01205 1.02785 1.14223 1.02785 1.14223 1.145 1.27839 1.07828 1.08984 1.09192 1.10513 1.08984 1.10177 1.10513 1.11834 1.10177 1.11433 1.11834 1.13269 0.669514 0.852163 0.70202 0.869664 0.70202 0.869664 0.733386 0.878255 0.733386 0.878255 0.773212 0.898118 0.773212 0.898118 0.830235 0.945575 1.07828 1.09192 1.08984 1.10513 1.08984 1.10513 1.10177 1.11834 1.10177 1.11834 1.11433 1.13269 0.830235 0.945575 0.909401 1.02785 0.909401 1.02785 1.01205 1.14223 1.02785 1.145 1.14223 1.27839 1.01205 1.13737 1.14223 1.28571 1.13737 1.28403 1.28571 1.45499 1.14223 1.28571 1.27839 1.44859 1.28571 1.45499 1.44859 1.64872 1.27839 1.44859 1.42028 1.62693 1.44859 1.64872 1.62693 1.86825 1.62693 1.86825 1.8248 2.117 1.01205 1.14223 1.13737 1.28571 1.14223 1.27839 1.28571 1.44859 1.13737 1.28571 1.28403 1.45499 1.28571 1.44859 1.45499 1.64872 1.27839 1.42028 1.44859 1.62693 1.44859 1.62693 1.64872 1.86825 1.62693 1.8248 1.86825 2.117 0.286505 0.324652 0.429774 0.469583 0.324652 0.367879 0.469583 0.511629 0.429774 0.469583 0.573043 0.628244 0.469583 0.511629 0.628244 0.669514 0.286505 0.429774 0.324652 0.469583 0.429774 0.573043 0.469583 0.628244 0.324652 0.469583 0.367879 0.511629 0.469583 0.628244 0.511629 0.669514 0.367879 0.416862 0.511629 0.553457 0.416862 0.472367 0.553457 0.598403 0.511629 0.553457 0.669514 0.70202 0.553457 0.598403 0.70202 0.733386 0.472367 0.535261 0.598403 0.650968 0.535261 0.606531 0.650968 0.715361 0.598403 0.650968 0.733386 0.773212 0.650968 0.715361 0.773212 0.830235 0.606531 0.687289 0.715361 0.794591 0.687289 0.778801 0.794591 0.890259 0.715361 0.794591 0.830235 0.909401 0.794591 0.890259 0.909401 1.01205 0.778801 0.882497 0.890259 1.00302 0.882497 1 1.00302 1.13315 0.890259 1.00302 1.01205 1.13737 1.00302 1.13315 1.13737 1.28403 0.367879 0.511629 0.416862 0.553457 0.511629 0.669514 0.553457 0.70202 0.416862 0.553457 0.472367 0.598403 0.553457 0.70202 0.598403 0.733386 0.472367 0.598403 0.535261 0.650968 0.598403 0.733386 0.650968 0.773212 0.535261 0.650968 0.606531 0.715361 0.650968 0.773212 0.715361 0.830235 0.606531 0.715361 0.687289 0.794591 0.715361 0.830235 0.794591 0.909401 0.687289 0.794591 0.778801 0.890259 0.794591 0.909401 0.890259 1.01205 0.778801 0.890259 0.882497 1.00302 0.890259 1.01205 1.00302 1.13737 0.882497 1.00302 1 1.13315 1.00302 1.13737 1.13315 1.28403 1.12155 1.138 1.138 1.1555 1.138 1.15446 1.1555 1.17426 1.138 1.1555 1.15446 1.17426 1.1555 1.17426 1.17426 1.19508 0.745671 0.779713 0.84188 0.887578 0.779713 0.813755 0.887578 0.921434 0.745671 0.84188 0.779713 0.887578 0.779713 0.887578 0.813755 0.921434 1.05147 1.05556 1.05629 1.06166 1.05556 1.06086 1.06166 1.06702 1.05147 1.05629 1.05556 1.06166 1.05556 1.06166 1.06086 1.06702 1.13269 1.13905 1.14234 1.15014 1.14234 1.15014 1.15199 1.16062 1.15199 1.16062 1.16221 1.1709 1.16221 1.1709 1.17243 1.18166 1.25725 1.34713 1.28154 1.39276 1.28154 1.39276 1.30402 1.43839 1.30402 1.43839 1.33275 1.49111 1.33275 1.49111 1.37008 1.55256 1.13269 1.14234 1.13905 1.15014 1.14234 1.15199 1.15014 1.16062 1.15199 1.16221 1.16062 1.1709 1.16221 1.17243 1.1709 1.18166 1.25725 1.28154 1.34713 1.39276 1.28154 1.30402 1.39276 1.43839 1.30402 1.33275 1.43839 1.49111 1.33275 1.37008 1.49111 1.55256 1.17243 1.18166 1.18327 1.19295 1.18327 1.19295 1.19411 1.20468 1.17243 1.18327 1.18166 1.19295 1.18327 1.19411 1.19295 1.20468 1.19508 1.20601 1.20601 1.21743 1.61048 1.85327 1.83272 2.0652 1.61048 1.83272 1.85327 2.0652 1.83272 2.0652 2.0652 2.29057 1.37008 1.55256 1.42053 1.62884 1.42053 1.62884 1.49669 1.72498 1.49669 1.72498 1.60497 1.84479 1.60497 1.84479 1.74426 1.989 1.49065 1.74426 1.65877 1.90971 1.74426 1.989 1.90971 2.15619 1.65877 1.90971 1.85327 2.09777 1.90971 2.15619 2.09777 2.34406 1.37008 1.42053 1.55256 1.62884 1.42053 1.49669 1.62884 1.72498 1.49669 1.60497 1.72498 1.84479 1.60497 1.74426 1.84479 1.989 1.49065 1.65877 1.74426 1.90971 1.65877 1.85327 1.90971 2.09777 1.74426 1.90971 1.989 2.15619 1.90971 2.09777 2.15619 2.34406 0.813755 0.832959 0.921434 0.942276 0.832959 0.852163 0.942276 0.954 0.813755 0.921434 0.832959 0.942276 0.832959 0.942276 0.852163 0.954 0.685432 0.753374 0.753374 0.831583 0.753374 0.821315 0.831583 0.911473 0.753374 0.831583 0.821315 0.911473 1.05063 1.05629 1.05655 1.06195 1.05063 1.05655 1.05629 1.06195 1.05655 1.06195 1.06195 1.0676 1.06086 1.0663 1.06702 1.07265 1.0663 1.07173 1.07265 1.07828 1.06086 1.06702 1.0663 1.07265 1.0663 1.07265 1.07173 1.07828 1.72498 1.94482 1.84479 2.077 1.94482 2.16246 2.077 2.30722 1.84479 2.077 1.989 2.22943 2.077 2.30722 2.22943 2.46956 1.989 2.22943 2.15619 2.40188 2.22943 2.46956 2.40188 2.64973 2.15619 2.40188 2.34406 2.59331 2.40188 2.64973 2.59331 2.84748 2.84748 3.10863 3.0623 3.33124 3.10863 3.37887 3.33124 3.61098 3.0623 3.33124 3.29368 3.57034 3.33124 3.61098 3.57034 3.85951 1.72498 1.84479 1.94482 2.077 1.84479 1.989 2.077 2.22943 1.94482 2.077 2.16246 2.30722 2.077 2.22943 2.30722 2.46956 1.989 2.15619 2.22943 2.40188 2.15619 2.34406 2.40188 2.59331 2.22943 2.40188 2.46956 2.64973 2.40188 2.59331 2.64973 2.84748 2.84748 3.0623 3.10863 3.33124 3.0623 3.29368 3.33124 3.57034 3.10863 3.33124 3.37887 3.61098 3.33124 3.57034 3.61098 3.85951 3.26115 3.52603 3.52603 3.7977 3.52603 3.80491 3.7977 4.08486 3.52603 3.7977 3.80491 4.08486 3.7977 4.08486 4.08486 4.38159 3.29368 3.57034 3.54125 3.82601 3.57034 3.85951 3.82601 4.12492 3.54125 3.82601 3.80491 4.09848 3.82601 4.12492 4.09848 4.40774 3.85951 4.16274 4.12492 4.43932 4.16274 4.48169 4.43932 4.77073 4.12492 4.43932 4.40774 4.73392 4.43932 4.77073 4.73392 5.07842 3.80491 4.09848 4.08486 4.38821 4.09848 4.40774 4.38821 4.70869 4.08486 4.38821 4.38159 4.69585 4.38821 4.70869 4.69585 5.02863 4.40774 4.73392 4.70869 5.04749 4.73392 5.07842 5.04749 5.40595 4.70869 5.04749 5.02863 5.3811 5.04749 5.40595 5.3811 5.7546 3.29368 3.54125 3.57034 3.82601 3.54125 3.80491 3.82601 4.09848 3.57034 3.82601 3.85951 4.12492 3.82601 4.09848 4.12492 4.40774 3.80491 4.08486 4.09848 4.38821 4.08486 4.38159 4.38821 4.69585 4.09848 4.38821 4.40774 4.70869 4.38821 4.69585 4.70869 5.02863 3.85951 4.12492 4.16274 4.43932 4.12492 4.40774 4.43932 4.73392 4.16274 4.43932 4.48169 4.77073 4.43932 4.73392 4.77073 5.07842 4.40774 4.70869 4.73392 5.04749 4.70869 5.02863 5.04749 5.3811 4.73392 5.04749 5.07842 5.40595 5.04749 5.3811 5.40595 5.7546 4.38159 4.69585 4.69585 5.02228 4.69585 5.02863 5.02228 5.36857 4.69585 5.02228 5.02863 5.36857 5.02228 5.36857 5.36857 5.72969 5.02863 5.3811 5.36857 5.73594 5.3811 5.7546 5.73594 6.12574 5.36857 5.73594 5.72969 6.1133 5.73594 6.12574 6.1133 6.52082 5.02863 5.36857 5.3811 5.73594 5.36857 5.72969 5.73594 6.1133 5.3811 5.73594 5.7546 6.12574 5.73594 6.1133 6.12574 6.52082 5.72969 6.1133 6.1133 6.5146 6.1133 6.52082 6.5146 6.94138 6.1133 6.5146 6.52082 6.94138 6.5146 6.94138 6.94138 7.38906 0.655729 0.7007 0.738522 0.791523 0.7007 0.745671 0.791523 0.84188 0.738522 0.791523 0.821315 0.887904 0.791523 0.84188 0.887904 0.950239 0.655729 0.738522 0.7007 0.791523 0.738522 0.821315 0.791523 0.887904 0.7007 0.791523 0.745671 0.84188 0.791523 0.887904 0.84188 0.950239 0.852163 0.860914 0.954 0.96173 0.860914 0.869664 0.96173 0.963796 0.869664 0.87396 0.963796 0.959612 0.87396 0.878255 0.959612 0.954613 0.878255 0.888187 0.954613 0.954536 0.888187 0.898118 0.954536 0.961515 0.954613 0.954536 1.03324 1.02018 0.954536 0.961515 1.02018 1.02045 1.07173 1.07706 1.07828 1.08406 1.07706 1.08243 1.08406 1.08984 1.08243 1.08811 1.08984 1.0958 1.08811 1.09496 1.0958 1.10177 1.03324 1.02018 1.09496 1.09208 1.02018 1.02045 1.09208 1.06947 1.09496 1.09208 1.10177 1.10805 1.09208 1.06947 1.10805 1.11433 1.11433 1.11348 1.12351 1.13339 1.11348 1.14147 1.13339 1.16937 1.12351 1.13339 1.13269 1.13905 1.13339 1.16937 1.13905 1.18259 1.14147 1.18937 1.16937 1.22668 1.18937 1.25361 1.22668 1.30279 1.16937 1.22668 1.18259 1.25725 1.22668 1.30279 1.25725 1.34713 0.852163 0.954 0.860914 0.96173 0.860914 0.96173 0.869664 0.963796 0.869664 0.963796 0.87396 0.959612 0.87396 0.959612 0.878255 0.954613 0.878255 0.954613 0.888187 0.954536 0.954613 1.03324 0.954536 1.02018 0.888187 0.954536 0.898118 0.961515 0.954536 1.02018 0.961515 1.02045 1.07173 1.07828 1.07706 1.08406 1.07706 1.08406 1.08243 1.08984 1.08243 1.08984 1.08811 1.0958 1.08811 1.0958 1.09496 1.10177 1.03324 1.09496 1.02018 1.09208 1.09496 1.10177 1.09208 1.10805 1.02018 1.09208 1.02045 1.06947 1.09208 1.10805 1.06947 1.11433 1.11433 1.12351 1.11348 1.13339 1.12351 1.13269 1.13339 1.13905 1.11348 1.13339 1.14147 1.16937 1.13339 1.13905 1.16937 1.18259 1.14147 1.16937 1.18937 1.22668 1.16937 1.18259 1.22668 1.25725 1.18937 1.22668 1.25361 1.30279 1.22668 1.25725 1.30279 1.34713 1.43839 1.58319 1.49111 1.65329 1.58319 1.72799 1.65329 1.82021 1.49111 1.65329 1.55256 1.7358 1.65329 1.82021 1.7358 1.92091 1.43839 1.49111 1.58319 1.65329 1.49111 1.55256 1.65329 1.7358 1.58319 1.65329 1.72799 1.82021 1.65329 1.7358 1.82021 1.92091 1.17426 1.18418 1.18467 1.19491 1.18418 1.19411 1.19491 1.20556 1.18467 1.19491 1.19508 1.20601 1.19491 1.20556 1.20601 1.21737 1.17426 1.18467 1.18418 1.19491 1.18467 1.19508 1.19491 1.20601 1.18418 1.19491 1.19411 1.20556 1.19491 1.20601 1.20556 1.21737 1.55256 1.7358 1.62884 1.83187 1.7358 1.92091 1.83187 2.03427 1.62884 1.83187 1.72498 1.94482 1.83187 2.03427 1.94482 2.16246 1.85327 2.09777 2.0652 2.30462 2.09777 2.34406 2.30462 2.55026 2.0652 2.30462 2.29057 2.52683 2.30462 2.55026 2.52683 2.77274 2.34406 2.59331 2.55026 2.80247 2.59331 2.84748 2.80247 3.0623 2.55026 2.80247 2.77274 3.02816 2.80247 3.0623 3.02816 3.29368 2.46956 2.71289 2.64973 2.90252 2.71289 2.96241 2.90252 3.16281 2.64973 2.90252 2.84748 3.10863 2.90252 3.16281 3.10863 3.37887 2.96241 3.22075 3.16281 3.43302 3.22075 3.49034 3.43302 3.71545 3.16281 3.43302 3.37887 3.66032 3.43302 3.71545 3.66032 3.95508 3.37887 3.66032 3.61098 3.90332 3.66032 3.95508 3.90332 4.21016 3.61098 3.90332 3.85951 4.16274 3.90332 4.21016 4.16274 4.48169 1.55256 1.62884 1.7358 1.83187 1.62884 1.72498 1.83187 1.94482 1.7358 1.83187 1.92091 2.03427 1.83187 1.94482 2.03427 2.16246 1.85327 2.0652 2.09777 2.30462 2.0652 2.29057 2.30462 2.52683 2.09777 2.30462 2.34406 2.55026 2.30462 2.52683 2.55026 2.77274 2.34406 2.55026 2.59331 2.80247 2.55026 2.77274 2.80247 3.02816 2.59331 2.80247 2.84748 3.0623 2.80247 3.02816 3.0623 3.29368 2.46956 2.64973 2.71289 2.90252 2.64973 2.84748 2.90252 3.10863 2.71289 2.90252 2.96241 3.16281 2.90252 3.10863 3.16281 3.37887 2.96241 3.16281 3.22075 3.43302 3.16281 3.37887 3.43302 3.66032 3.22075 3.43302 3.49034 3.71545 3.43302 3.66032 3.71545 3.95508 3.37887 3.61098 3.66032 3.90332 3.61098 3.85951 3.90332 4.16274 3.66032 3.90332 3.95508 4.21016 3.90332 4.16274 4.21016 4.48169 2.29057 2.52683 2.52683 2.76232 2.52683 2.77274 2.76232 3.00998 2.52683 2.76232 2.77274 3.00998 2.76232 3.00998 3.00998 3.26115 2.77274 3.02816 3.00998 3.2695 3.02816 3.29368 3.2695 3.54125 3.00998 3.2695 3.26115 3.52603 3.2695 3.54125 3.52603 3.80491 2.77274 3.00998 3.02816 3.2695 3.00998 3.26115 3.2695 3.52603 3.02816 3.2695 3.29368 3.54125 3.2695 3.52603 3.54125 3.80491 0.898118 0.921847 0.961515 0.977243 0.921847 0.945575 0.977243 1.00393 0.961515 0.977243 1.02045 1.03101 0.977243 1.00393 1.03101 1.05621 0.945575 0.986714 1.00393 1.04035 0.986714 1.02785 1.04035 1.08643 1.00393 1.04035 1.05621 1.09454 1.04035 1.08643 1.09454 1.145 1.02045 1.03101 1.06947 1.07825 1.03101 1.05621 1.07825 1.10302 1.06947 1.07825 1.11433 1.11348 1.07825 1.10302 1.11348 1.14147 1.05621 1.09454 1.10302 1.14477 1.09454 1.145 1.14477 1.20154 1.10302 1.14477 1.14147 1.18937 1.14477 1.20154 1.18937 1.25361 1.145 1.2117 1.20154 1.27015 1.2117 1.27839 1.27015 1.34933 1.20154 1.27015 1.25361 1.33147 1.27015 1.34933 1.33147 1.42028 1.25361 1.33147 1.30279 1.39222 1.33147 1.42028 1.39222 1.49386 1.30279 1.39222 1.34713 1.45662 1.39222 1.49386 1.45662 1.56612 1.56612 1.69245 1.64705 1.78514 1.69245 1.8248 1.78514 1.93355 1.64705 1.78514 1.72799 1.88489 1.78514 1.93355 1.88489 2.04807 1.8248 1.9709 1.93355 2.08954 1.9709 2.117 2.08954 2.25353 1.93355 2.08954 2.04807 2.21923 2.08954 2.25353 2.21923 2.39888 1.72799 1.88489 1.82021 1.99232 1.88489 2.04807 1.99232 2.17143 1.82021 1.99232 1.92091 2.10995 1.99232 2.17143 2.10995 2.30474 2.04807 2.21923 2.17143 2.35812 2.21923 2.39888 2.35812 2.55359 2.17143 2.35812 2.30474 2.507 2.35812 2.55359 2.507 2.71828 0.898118 0.961515 0.921847 0.977243 0.961515 1.02045 0.977243 1.03101 0.921847 0.977243 0.945575 1.00393 0.977243 1.03101 1.00393 1.05621 1.02045 1.06947 1.03101 1.07825 1.06947 1.11433 1.07825 1.11348 1.03101 1.07825 1.05621 1.10302 1.07825 1.11348 1.10302 1.14147 0.945575 1.00393 0.986714 1.04035 1.00393 1.05621 1.04035 1.09454 0.986714 1.04035 1.02785 1.08643 1.04035 1.09454 1.08643 1.145 1.05621 1.10302 1.09454 1.14477 1.10302 1.14147 1.14477 1.18937 1.09454 1.14477 1.145 1.20154 1.14477 1.18937 1.20154 1.25361 1.145 1.20154 1.2117 1.27015 1.20154 1.25361 1.27015 1.33147 1.2117 1.27015 1.27839 1.34933 1.27015 1.33147 1.34933 1.42028 1.25361 1.30279 1.33147 1.39222 1.30279 1.34713 1.39222 1.45662 1.33147 1.39222 1.42028 1.49386 1.39222 1.45662 1.49386 1.56612 1.56612 1.64705 1.69245 1.78514 1.64705 1.72799 1.78514 1.88489 1.69245 1.78514 1.8248 1.93355 1.78514 1.88489 1.93355 2.04807 1.72799 1.82021 1.88489 1.99232 1.82021 1.92091 1.99232 2.10995 1.88489 1.99232 2.04807 2.17143 1.99232 2.10995 2.17143 2.30474 1.8248 1.93355 1.9709 2.08954 1.93355 2.04807 2.08954 2.21923 1.9709 2.08954 2.117 2.25353 2.08954 2.21923 2.25353 2.39888 2.04807 2.17143 2.21923 2.35812 2.17143 2.30474 2.35812 2.507 2.21923 2.35812 2.39888 2.55359 2.35812 2.507 2.55359 2.71828 1.92091 2.10995 2.03427 2.23922 2.10995 2.30474 2.23922 2.44933 2.03427 2.23922 2.16246 2.38197 2.23922 2.44933 2.38197 2.60643 2.30474 2.507 2.44933 2.66678 2.507 2.71828 2.66678 2.8936 2.44933 2.66678 2.60643 2.83842 2.66678 2.8936 2.83842 3.08022 2.16246 2.38197 2.30722 2.53954 2.38197 2.60643 2.53954 2.77717 2.30722 2.53954 2.46956 2.71289 2.53954 2.77717 2.71289 2.96241 2.60643 2.83842 2.77717 3.0228 2.83842 3.08022 3.0228 3.27887 2.77717 3.0228 2.96241 3.22075 3.0228 3.27887 3.22075 3.49034 1.92091 2.03427 2.10995 2.23922 2.03427 2.16246 2.23922 2.38197 2.10995 2.23922 2.30474 2.44933 2.23922 2.38197 2.44933 2.60643 2.16246 2.30722 2.38197 2.53954 2.30722 2.46956 2.53954 2.71289 2.38197 2.53954 2.60643 2.77717 2.53954 2.71289 2.77717 2.96241 2.30474 2.44933 2.507 2.66678 2.44933 2.60643 2.66678 2.83842 2.507 2.66678 2.71828 2.8936 2.66678 2.83842 2.8936 3.08022 2.60643 2.77717 2.83842 3.0228 2.77717 2.96241 3.0228 3.22075 2.83842 3.0228 3.08022 3.27887 3.0228 3.22075 3.27887 3.49034 1.42028 1.52361 1.49386 1.6044 1.52361 1.62693 1.6044 1.72586 1.49386 1.6044 1.56612 1.69245 1.6044 1.72586 1.69245 1.8248 1.42028 1.49386 1.52361 1.6044 1.49386 1.56612 1.6044 1.69245 1.52361 1.6044 1.62693 1.72586 1.6044 1.69245 1.72586 1.8248 0.84188 0.864729 0.89606 0.919929 0.864729 0.887578 0.919929 0.94453 0.89606 0.919929 0.950239 0.977219 0.919929 0.94453 0.977219 0.999964 0.84188 0.89606 0.864729 0.919929 0.89606 0.950239 0.919929 0.977219 0.864729 0.919929 0.887578 0.94453 0.919929 0.977219 0.94453 0.999964 0.950239 0.977219 1.00948 1.04663 0.977219 0.999964 1.04663 1.05377 1.00948 1.04663 1.05147 1.05351 1.04663 1.05377 1.05351 1.05556 0.950239 1.00948 0.977219 1.04663 1.00948 1.05147 1.04663 1.05351 0.977219 1.04663 0.999964 1.05377 1.04663 1.05351 1.05377 1.05556 1.16062 1.16506 1.16576 1.17014 1.16576 1.17014 1.1709 1.17535 1.1709 1.17535 1.17628 1.18078 1.17628 1.18078 1.18166 1.18628 1.23873 1.30402 1.24623 1.31839 1.24623 1.31839 1.25618 1.33275 1.25618 1.33275 1.26721 1.35142 1.26721 1.35142 1.28027 1.37008 1.16062 1.16576 1.16506 1.17014 1.16576 1.1709 1.17014 1.17535 1.1709 1.17628 1.17535 1.18078 1.17628 1.18166 1.18078 1.18628 1.23873 1.24623 1.30402 1.31839 1.24623 1.25618 1.31839 1.33275 1.25618 1.26721 1.33275 1.35142 1.26721 1.28027 1.35142 1.37008 1.18166 1.18628 1.18731 1.19199 1.18731 1.19199 1.19295 1.19799 1.19295 1.19799 1.19882 1.20414 1.19882 1.20414 1.20468 1.20983 1.20468 1.20983 1.21044 1.21677 1.18166 1.18731 1.18628 1.19199 1.18731 1.19295 1.19199 1.19799 1.19295 1.19882 1.19799 1.20414 1.19882 1.20468 1.20414 1.20983 1.20468 1.21044 1.20983 1.21677 1.21743 1.22321 1.22321 1.22934 1.21737 1.22328 1.22319 1.22993 1.35848 1.49065 1.44122 1.57471 1.44122 1.57471 1.53278 1.65877 1.37747 1.5049 1.48993 1.61048 1.40343 1.53278 1.5049 1.62979 1.53278 1.65877 1.62979 1.75602 1.5049 1.62979 1.61048 1.73188 1.62979 1.75602 1.73188 1.85327 1.21737 1.22319 1.22328 1.22993 1.37747 1.48993 1.5049 1.61048 1.35848 1.44122 1.49065 1.57471 1.44122 1.53278 1.57471 1.65877 1.40343 1.5049 1.53278 1.62979 1.5049 1.61048 1.62979 1.73188 1.53278 1.62979 1.65877 1.75602 1.62979 1.73188 1.75602 1.85327 1.36994 1.48993 1.48993 1.60418 1.48993 1.61048 1.60418 1.7216 1.48993 1.60418 1.61048 1.7216 1.60418 1.7216 1.7216 1.83272 1.28027 1.37008 1.29517 1.3953 1.29517 1.3953 1.31434 1.42053 1.31434 1.42053 1.3403 1.45861 1.3403 1.45861 1.37912 1.49669 1.37912 1.49669 1.42645 1.55083 1.42645 1.55083 1.48278 1.60497 1.35418 1.48278 1.41739 1.54674 1.48278 1.60497 1.54674 1.67461 1.41739 1.54674 1.49065 1.61745 1.54674 1.67461 1.61745 1.74426 1.28027 1.29517 1.37008 1.3953 1.29517 1.31434 1.3953 1.42053 1.31434 1.3403 1.42053 1.45861 1.3403 1.37912 1.45861 1.49669 1.37912 1.42645 1.49669 1.55083 1.42645 1.48278 1.55083 1.60497 1.35418 1.41739 1.48278 1.54674 1.41739 1.49065 1.54674 1.61745 1.48278 1.54674 1.60497 1.67461 1.54674 1.61745 1.67461 1.74426 0.887578 0.904506 0.94453 0.966029 0.904506 0.921434 0.966029 0.982512 0.94453 0.966029 0.999964 1.03915 0.966029 0.982512 1.03915 1.05151 0.887578 0.94453 0.904506 0.966029 0.94453 0.999964 0.966029 1.03915 0.904506 0.966029 0.921434 0.982512 0.966029 1.03915 0.982512 1.05151 0.999964 1.03915 1.05377 1.0554 1.03915 1.05151 1.0554 1.05716 1.05377 1.0554 1.05556 1.05821 1.0554 1.05716 1.05821 1.06086 0.999964 1.05377 1.03915 1.0554 1.05377 1.05556 1.0554 1.05821 1.03915 1.0554 1.05151 1.05716 1.0554 1.05821 1.05716 1.06086 1.13905 1.16082 1.1446 1.14841 1.16082 1.18259 1.14841 1.188 1.1446 1.14841 1.15014 1.15449 1.14841 1.188 1.15449 1.18852 1.15014 1.15449 1.15538 1.15999 1.15449 1.18852 1.15999 1.1741 1.15538 1.15999 1.16062 1.16506 1.15999 1.1741 1.16506 1.1708 1.18259 1.21992 1.188 1.22625 1.21992 1.25725 1.22625 1.2694 1.188 1.22625 1.18852 1.2308 1.22625 1.2694 1.2308 1.28154 1.18852 1.2308 1.1741 1.2341 1.2308 1.28154 1.2341 1.29278 1.1741 1.2341 1.1708 1.23873 1.2341 1.29278 1.23873 1.30402 1.13905 1.1446 1.16082 1.14841 1.1446 1.15014 1.14841 1.15449 1.16082 1.14841 1.18259 1.188 1.14841 1.15449 1.188 1.18852 1.15014 1.15538 1.15449 1.159