# vtk DataFile Version 3.0
#This file was generated by the deal.II library on 2020/3/18 at 14:21:33
ASCII
DATASET UNSTRUCTURED_GRID

POINTS 2272 double
-1 -1 0
-0.75 -1 0
-1 -0.75 0
-0.75 -0.75 0
-0.75 -1 0
-0.5 -1 0
-0.75 -0.75 0
-0.5 -0.75 0
-1 -0.75 0
-0.75 -0.75 0
-1 -0.5 0
-0.75 -0.5 0
-0.75 -0.75 0
-0.5 -0.75 0
-0.75 -0.5 0
-0.5 -0.5 0
-0.5 -1 0
-0.25 -1 0
-0.5 -0.75 0
-0.25 -0.75 0
-0.25 -1 0
0 -1 0
-0.25 -0.75 0
0 -0.75 0
-0.5 -0.75 0
-0.25 -0.75 0
-0.5 -0.5 0
-0.25 -0.5 0
-0.25 -0.75 0
0 -0.75 0
-0.25 -0.5 0
0 -0.5 0
-1 -0.5 0
-0.75 -0.5 0
-1 -0.25 0
-0.75 -0.25 0
-0.75 -0.5 0
-0.5 -0.5 0
-0.75 -0.25 0
-0.5 -0.25 0
-0.5 -0.5 0
-0.25 -0.5 0
-0.5 -0.25 0
-0.25 -0.25 0
-0.25 -0.5 0
0 -0.5 0
-0.25 -0.25 0
0 -0.25 0
0 -1 0
0.25 -1 0
0 -0.75 0
0.25 -0.75 0
0.25 -1 0
0.5 -1 0
0.25 -0.75 0
0.5 -0.75 0
0 -0.75 0
0.25 -0.75 0
0 -0.5 0
0.25 -0.5 0
0.25 -0.75 0
0.5 -0.75 0
0.25 -0.5 0
0.5 -0.5 0
0.5 -1 0
0.75 -1 0
0.5 -0.75 0
0.75 -0.75 0
0.75 -1 0
1 -1 0
0.75 -0.75 0
1 -0.75 0
0.5 -0.75 0
0.75 -0.75 0
0.5 -0.5 0
0.75 -0.5 0
0.75 -0.75 0
1 -0.75 0
0.75 -0.5 0
1 -0.5 0
0 -0.5 0
0.25 -0.5 0
0 -0.25 0
0.25 -0.25 0
0.25 -0.5 0
0.5 -0.5 0
0.25 -0.25 0
0.5 -0.25 0
0.5 -0.5 0
0.75 -0.5 0
0.5 -0.25 0
0.75 -0.25 0
0.75 -0.5 0
1 -0.5 0
0.75 -0.25 0
1 -0.25 0
-1 -0.25 0
-0.875 -0.25 0
-1 -0.125 0
-0.875 -0.125 0
-0.875 -0.25 0
-0.75 -0.25 0
-0.875 -0.125 0
-0.75 -0.125 0
-1 -0.125 0
-0.875 -0.125 0
-1 0 0
-0.875 0 0
-0.875 -0.125 0
-0.75 -0.125 0
-0.875 0 0
-0.75 0 0
-0.75 -0.25 0
-0.625 -0.25 0
-0.75 -0.125 0
-0.625 -0.125 0
-0.625 -0.25 0
-0.5 -0.25 0
-0.625 -0.125 0
-0.5 -0.125 0
-0.75 -0.125 0
-0.625 -0.125 0
-0.75 0 0
-0.625 0 0
-0.625 -0.125 0
-0.5 -0.125 0
-0.625 0 0
-0.5 0 0
-0.5 -0.25 0
-0.375 -0.25 0
-0.5 -0.125 0
-0.375 -0.125 0
-0.375 -0.25 0
-0.25 -0.25 0
-0.375 -0.125 0
-0.25 -0.125 0
-0.5 -0.125 0
-0.375 -0.125 0
-0.5 0 0
-0.375 0 0
-0.375 -0.125 0
-0.25 -0.125 0
-0.375 0 0
-0.25 0 0
-0.25 -0.25 0
-0.125 -0.25 0
-0.25 -0.125 0
-0.125 -0.125 0
-0.125 -0.25 0
0 -0.25 0
-0.125 -0.125 0
0 -0.125 0
-0.25 -0.125 0
-0.125 -0.125 0
-0.25 0 0
-0.125 0 0
-0.125 -0.125 0
0 -0.125 0
-0.125 0 0
0 0 0
0 -0.25 0
0.125 -0.25 0
0 -0.125 0
0.125 -0.125 0
0.125 -0.25 0
0.25 -0.25 0
0.125 -0.125 0
0.25 -0.125 0
0 -0.125 0
0.125 -0.125 0
0 0 0
0.125 0 0
0.125 -0.125 0
0.25 -0.125 0
0.125 0 0
0.25 0 0
0.25 -0.25 0
0.375 -0.25 0
0.25 -0.125 0
0.375 -0.125 0
0.375 -0.25 0
0.5 -0.25 0
0.375 -0.125 0
0.5 -0.125 0
0.25 -0.125 0
0.375 -0.125 0
0.25 0 0
0.375 0 0
0.375 -0.125 0
0.5 -0.125 0
0.375 0 0
0.5 0 0
0.5 -0.25 0
0.625 -0.25 0
0.5 -0.125 0
0.625 -0.125 0
0.625 -0.25 0
0.75 -0.25 0
0.625 -0.125 0
0.75 -0.125 0
0.5 -0.125 0
0.625 -0.125 0
0.5 0 0
0.625 0 0
0.625 -0.125 0
0.75 -0.125 0
0.625 0 0
0.75 0 0
0.75 -0.25 0
0.875 -0.25 0
0.75 -0.125 0
0.875 -0.125 0
0.875 -0.25 0
1 -0.25 0
0.875 -0.125 0
1 -0.125 0
0.75 -0.125 0
0.875 -0.125 0
0.75 0 0
0.875 0 0
0.875 -0.125 0
1 -0.125 0
0.875 0 0
1 0 0
-1 0 0
-0.9375 0 0
-1 0.0625 0
-0.9375 0.0625 0
-0.9375 0 0
-0.875 0 0
-0.9375 0.0625 0
-0.875 0.0625 0
-1 0.0625 0
-0.9375 0.0625 0
-1 0.125 0
-0.9375 0.125 0
-0.9375 0.0625 0
-0.875 0.0625 0
-0.9375 0.125 0
-0.875 0.125 0
-0.875 0 0
-0.8125 0 0
-0.875 0.0625 0
-0.8125 0.0625 0
-0.8125 0 0
-0.75 0 0
-0.8125 0.0625 0
-0.75 0.0625 0
-0.875 0.0625 0
-0.8125 0.0625 0
-0.875 0.125 0
-0.8125 0.125 0
-0.8125 0.0625 0
-0.75 0.0625 0
-0.8125 0.125 0
-0.75 0.125 0
-1 0.125 0
-0.9375 0.125 0
-1 0.1875 0
-0.9375 0.1875 0
-0.9375 0.125 0
-0.875 0.125 0
-0.9375 0.1875 0
-0.875 0.1875 0
-1 0.1875 0
-0.9375 0.1875 0
-1 0.25 0
-0.9375 0.25 0
-0.9375 0.1875 0
-0.875 0.1875 0
-0.9375 0.25 0
-0.875 0.25 0
-0.875 0.125 0
-0.8125 0.125 0
-0.875 0.1875 0
-0.8125 0.1875 0
-0.8125 0.125 0
-0.75 0.125 0
-0.8125 0.1875 0
-0.75 0.1875 0
-0.875 0.1875 0
-0.8125 0.1875 0
-0.875 0.25 0
-0.8125 0.25 0
-0.8125 0.1875 0
-0.75 0.1875 0
-0.8125 0.25 0
-0.75 0.25 0
-0.75 0 0
-0.6875 0 0
-0.75 0.0625 0
-0.6875 0.0625 0
-0.6875 0 0
-0.625 0 0
-0.6875 0.0625 0
-0.625 0.0625 0
-0.75 0.0625 0
-0.6875 0.0625 0
-0.75 0.125 0
-0.6875 0.125 0
-0.6875 0.0625 0
-0.625 0.0625 0
-0.6875 0.125 0
-0.625 0.125 0
-0.625 0 0
-0.5625 0 0
-0.625 0.0625 0
-0.5625 0.0625 0
-0.5625 0 0
-0.5 0 0
-0.5625 0.0625 0
-0.5 0.0625 0
-0.625 0.0625 0
-0.5625 0.0625 0
-0.625 0.125 0
-0.5625 0.125 0
-0.5625 0.0625 0
-0.5 0.0625 0
-0.5625 0.125 0
-0.5 0.125 0
-0.75 0.125 0
-0.6875 0.125 0
-0.75 0.1875 0
-0.6875 0.1875 0
-0.6875 0.125 0
-0.625 0.125 0
-0.6875 0.1875 0
-0.625 0.1875 0
-0.75 0.1875 0
-0.6875 0.1875 0
-0.75 0.25 0
-0.6875 0.25 0
-0.6875 0.1875 0
-0.625 0.1875 0
-0.6875 0.25 0
-0.625 0.25 0
-0.625 0.125 0
-0.5625 0.125 0
-0.625 0.1875 0
-0.5625 0.1875 0
-0.5625 0.125 0
-0.5 0.125 0
-0.5625 0.1875 0
-0.5 0.1875 0
-0.625 0.1875 0
-0.5625 0.1875 0
-0.625 0.25 0
-0.5625 0.25 0
-0.5625 0.1875 0
-0.5 0.1875 0
-0.5625 0.25 0
-0.5 0.25 0
-1 0.25 0
-0.9375 0.25 0
-1 0.3125 0
-0.9375 0.3125 0
-0.9375 0.25 0
-0.875 0.25 0
-0.9375 0.3125 0
-0.875 0.3125 0
-1 0.3125 0
-0.9375 0.3125 0
-1 0.375 0
-0.9375 0.375 0
-0.9375 0.3125 0
-0.875 0.3125 0
-0.9375 0.375 0
-0.875 0.375 0
-0.875 0.25 0
-0.8125 0.25 0
-0.875 0.3125 0
-0.8125 0.3125 0
-0.8125 0.25 0
-0.75 0.25 0
-0.8125 0.3125 0
-0.75 0.3125 0
-0.875 0.3125 0
-0.8125 0.3125 0
-0.875 0.375 0
-0.8125 0.375 0
-0.8125 0.3125 0
-0.75 0.3125 0
-0.8125 0.375 0
-0.75 0.375 0
-1 0.375 0
-0.9375 0.375 0
-1 0.4375 0
-0.9375 0.4375 0
-0.9375 0.375 0
-0.875 0.375 0
-0.9375 0.4375 0
-0.875 0.4375 0
-1 0.4375 0
-0.9375 0.4375 0
-1 0.5 0
-0.9375 0.5 0
-0.9375 0.4375 0
-0.875 0.4375 0
-0.9375 0.5 0
-0.875 0.5 0
-0.875 0.375 0
-0.8125 0.375 0
-0.875 0.4375 0
-0.8125 0.4375 0
-0.8125 0.375 0
-0.75 0.375 0
-0.8125 0.4375 0
-0.75 0.4375 0
-0.875 0.4375 0
-0.8125 0.4375 0
-0.875 0.5 0
-0.8125 0.5 0
-0.8125 0.4375 0
-0.75 0.4375 0
-0.8125 0.5 0
-0.75 0.5 0
-0.75 0.25 0
-0.6875 0.25 0
-0.75 0.3125 0
-0.6875 0.3125 0
-0.6875 0.25 0
-0.625 0.25 0
-0.6875 0.3125 0
-0.625 0.3125 0
-0.75 0.3125 0
-0.6875 0.3125 0
-0.75 0.375 0
-0.6875 0.375 0
-0.6875 0.3125 0
-0.625 0.3125 0
-0.6875 0.375 0
-0.625 0.375 0
-0.625 0.25 0
-0.5625 0.25 0
-0.625 0.3125 0
-0.5625 0.3125 0
-0.5625 0.25 0
-0.5 0.25 0
-0.5625 0.3125 0
-0.5 0.3125 0
-0.625 0.3125 0
-0.5625 0.3125 0
-0.625 0.375 0
-0.5625 0.375 0
-0.5625 0.3125 0
-0.5 0.3125 0
-0.5625 0.375 0
-0.5 0.375 0
-0.75 0.375 0
-0.6875 0.375 0
-0.75 0.4375 0
-0.6875 0.4375 0
-0.6875 0.375 0
-0.625 0.375 0
-0.6875 0.4375 0
-0.625 0.4375 0
-0.75 0.4375 0
-0.6875 0.4375 0
-0.75 0.5 0
-0.6875 0.5 0
-0.6875 0.4375 0
-0.625 0.4375 0
-0.6875 0.5 0
-0.625 0.5 0
-0.625 0.375 0
-0.5625 0.375 0
-0.625 0.4375 0
-0.5625 0.4375 0
-0.5625 0.375 0
-0.5 0.375 0
-0.5625 0.4375 0
-0.5 0.4375 0
-0.625 0.4375 0
-0.5625 0.4375 0
-0.625 0.5 0
-0.5625 0.5 0
-0.5625 0.4375 0
-0.5 0.4375 0
-0.5625 0.5 0
-0.5 0.5 0
-0.5 0 0
-0.4375 0 0
-0.5 0.0625 0
-0.4375 0.0625 0
-0.4375 0 0
-0.375 0 0
-0.4375 0.0625 0
-0.375 0.0625 0
-0.5 0.0625 0
-0.4375 0.0625 0
-0.5 0.125 0
-0.4375 0.125 0
-0.4375 0.0625 0
-0.375 0.0625 0
-0.4375 0.125 0
-0.375 0.125 0
-0.375 0 0
-0.3125 0 0
-0.375 0.0625 0
-0.3125 0.0625 0
-0.3125 0 0
-0.25 0 0
-0.3125 0.0625 0
-0.25 0.0625 0
-0.375 0.0625 0
-0.3125 0.0625 0
-0.375 0.125 0
-0.3125 0.125 0
-0.3125 0.0625 0
-0.25 0.0625 0
-0.3125 0.125 0
-0.25 0.125 0
-0.5 0.125 0
-0.4375 0.125 0
-0.5 0.1875 0
-0.4375 0.1875 0
-0.4375 0.125 0
-0.375 0.125 0
-0.4375 0.1875 0
-0.375 0.1875 0
-0.5 0.1875 0
-0.4375 0.1875 0
-0.5 0.25 0
-0.4375 0.25 0
-0.4375 0.1875 0
-0.375 0.1875 0
-0.4375 0.25 0
-0.375 0.25 0
-0.375 0.125 0
-0.3125 0.125 0
-0.375 0.1875 0
-0.3125 0.1875 0
-0.3125 0.125 0
-0.25 0.125 0
-0.3125 0.1875 0
-0.25 0.1875 0
-0.375 0.1875 0
-0.3125 0.1875 0
-0.375 0.25 0
-0.3125 0.25 0
-0.3125 0.1875 0
-0.25 0.1875 0
-0.3125 0.25 0
-0.25 0.25 0
-0.25 0 0
-0.1875 0 0
-0.25 0.0625 0
-0.1875 0.0625 0
-0.1875 0 0
-0.125 0 0
-0.1875 0.0625 0
-0.125 0.0625 0
-0.25 0.0625 0
-0.1875 0.0625 0
-0.25 0.125 0
-0.1875 0.125 0
-0.1875 0.0625 0
-0.125 0.0625 0
-0.1875 0.125 0
-0.125 0.125 0
-0.125 0 0
-0.0625 0 0
-0.125 0.0625 0
-0.0625 0.0625 0
-0.0625 0 0
0 0 0
-0.0625 0.0625 0
0 0.0625 0
-0.125 0.0625 0
-0.0625 0.0625 0
-0.125 0.125 0
-0.0625 0.125 0
-0.0625 0.0625 0
0 0.0625 0
-0.0625 0.125 0
0 0.125 0
-0.25 0.125 0
-0.1875 0.125 0
-0.25 0.1875 0
-0.1875 0.1875 0
-0.1875 0.125 0
-0.125 0.125 0
-0.1875 0.1875 0
-0.125 0.1875 0
-0.25 0.1875 0
-0.1875 0.1875 0
-0.25 0.25 0
-0.1875 0.25 0
-0.1875 0.1875 0
-0.125 0.1875 0
-0.1875 0.25 0
-0.125 0.25 0
-0.125 0.125 0
-0.0625 0.125 0
-0.125 0.1875 0
-0.0625 0.1875 0
-0.0625 0.125 0
0 0.125 0
-0.0625 0.1875 0
0 0.1875 0
-0.125 0.1875 0
-0.0625 0.1875 0
-0.125 0.25 0
-0.0625 0.25 0
-0.0625 0.1875 0
0 0.1875 0
-0.0625 0.25 0
0 0.25 0
-0.5 0.25 0
-0.4375 0.25 0
-0.5 0.3125 0
-0.4375 0.3125 0
-0.4375 0.25 0
-0.375 0.25 0
-0.4375 0.3125 0
-0.375 0.3125 0
-0.5 0.3125 0
-0.4375 0.3125 0
-0.5 0.375 0
-0.4375 0.375 0
-0.4375 0.3125 0
-0.375 0.3125 0
-0.4375 0.375 0
-0.375 0.375 0
-0.375 0.25 0
-0.3125 0.25 0
-0.375 0.3125 0
-0.3125 0.3125 0
-0.3125 0.25 0
-0.25 0.25 0
-0.3125 0.3125 0
-0.25 0.3125 0
-0.375 0.3125 0
-0.3125 0.3125 0
-0.375 0.375 0
-0.3125 0.375 0
-0.3125 0.3125 0
-0.25 0.3125 0
-0.3125 0.375 0
-0.25 0.375 0
-0.5 0.375 0
-0.4375 0.375 0
-0.5 0.4375 0
-0.4375 0.4375 0
-0.4375 0.375 0
-0.375 0.375 0
-0.4375 0.4375 0
-0.375 0.4375 0
-0.5 0.4375 0
-0.4375 0.4375 0
-0.5 0.5 0
-0.4375 0.5 0
-0.4375 0.4375 0
-0.375 0.4375 0
-0.4375 0.5 0
-0.375 0.5 0
-0.375 0.375 0
-0.3125 0.375 0
-0.375 0.4375 0
-0.3125 0.4375 0
-0.3125 0.375 0
-0.25 0.375 0
-0.3125 0.4375 0
-0.25 0.4375 0
-0.375 0.4375 0
-0.3125 0.4375 0
-0.375 0.5 0
-0.3125 0.5 0
-0.3125 0.4375 0
-0.25 0.4375 0
-0.3125 0.5 0
-0.25 0.5 0
-0.25 0.25 0
-0.1875 0.25 0
-0.25 0.3125 0
-0.1875 0.3125 0
-0.1875 0.25 0
-0.125 0.25 0
-0.1875 0.3125 0
-0.125 0.3125 0
-0.25 0.3125 0
-0.1875 0.3125 0
-0.25 0.375 0
-0.1875 0.375 0
-0.1875 0.3125 0
-0.125 0.3125 0
-0.1875 0.375 0
-0.125 0.375 0
-0.125 0.25 0
-0.0625 0.25 0
-0.125 0.3125 0
-0.0625 0.3125 0
-0.0625 0.25 0
0 0.25 0
-0.0625 0.3125 0
0 0.3125 0
[...]
POINT_DATA 2272
SCALARS solution double 1
LOOKUP_TABLE default
0.135335 0.173774 0.173774 0.223065 0.173774 0.22313 0.223065 0.286348 0.173774 0.223065 0.22313 0.286231 0.223065 0.286348 0.286231 0.367351 0.22313 0.286505 0.286348 0.367643 0.286505 0.367879 0.367643 0.472071 0.286348 0.367643 0.367351 0.471648 0.367643 0.472071 0.471648 0.605613 0.22313 0.286231 0.286505 0.367011 0.286231 0.367351 0.367011 0.471224 0.367351 0.471648 0.471224 0.605041 0.471648 0.605613 0.605041 0.776882 0.367879 0.472367 0.472071 0.606209 0.472367 0.606531 0.606209 0.778569 0.472071 0.606209 0.605613 0.777693 0.606209 0.778569 0.777693 0.998782 0.606531 0.778801 0.778569 0.999975 0.778801 1 0.999975 1.28403 0.778569 0.999975 0.998782 1.2833 0.999975 1.28403 1.2833 1.64872 0.605613 0.777693 0.776882 0.997547 0.777693 0.998782 0.997547 1.28098 0.998782 1.2833 1.28098 1.64491 1.2833 1.64872 1.64491 2.117 0.286505 0.326758 0.324652 0.368143 0.326758 0.367011 0.368143 0.417446 0.324652 0.368143 0.367879 0.416909 0.368143 0.417446 0.416909 0.472559 0.367011 0.419118 0.417446 0.472677 0.419118 0.471224 0.472677 0.535999 0.417446 0.472677 0.472559 0.535579 0.472677 0.535999 0.535579 0.60688 0.471224 0.538133 0.535999 0.606942 0.538133 0.605041 0.606942 0.68824 0.535999 0.606942 0.60688 0.687753 0.606942 0.68824 0.687753 0.779277 0.605041 0.690961 0.68824 0.779322 0.690961 0.776882 0.779322 0.883702 0.68824 0.779322 0.779277 0.883093 0.779322 0.883702 0.883093 1.00059 0.776882 0.887214 0.883702 1.00065 0.887214 0.997547 1.00065 1.13467 0.883702 1.00065 1.00059 1.13386 1.00065 1.13467 1.13386 1.2847 0.997547 1.13926 1.13467 1.28482 1.13926 1.28098 1.28482 1.45689 1.13467 1.28482 1.2847 1.45579 1.28482 1.45689 1.45579 1.64941 1.28098 1.46294 1.45689 1.64969 1.46294 1.64491 1.64969 1.87082 1.45689 1.64969 1.64941 1.86902 1.64969 1.87082 1.86902 2.11747 1.64491 1.88095 1.87082 2.1185 1.88095 2.117 2.1185 2.39888 1.87082 2.1185 2.11747 2.3987 2.1185 2.39888 2.3987 2.71828 0.367879 0.392394 0.391606 0.417079 0.392394 0.416909 0.417079 0.444171 0.391606 0.417079 0.416862 0.443915 0.417079 0.444171 0.443915 0.472672 0.416909 0.444734 0.444171 0.472809 0.444734 0.472559 0.472809 0.503463 0.444171 0.472809 0.472672 0.50326 0.472809 0.503463 0.50326 0.53578 0.416862 0.443915 0.443747 0.472501 0.443915 0.472672 0.472501 0.503091 0.443747 0.472501 0.472367 0.502947 0.472501 0.503091 0.502947 0.535487 0.472672 0.50326 0.503091 0.535631 0.50326 0.53578 0.535631 0.570251 0.503091 0.535631 0.535487 0.57011 0.535631 0.570251 0.57011 0.606951 0.472559 0.504069 0.503463 0.535889 0.504069 0.535579 0.535889 0.570595 0.503463 0.535889 0.53578 0.570402 0.535889 0.570595 0.570402 0.607222 0.535579 0.57123 0.570595 0.607306 0.57123 0.60688 0.607306 0.646612 0.570595 0.607306 0.607222 0.646428 0.607306 0.646612 0.646428 0.68813 0.53578 0.570402 0.570251 0.607087 0.570402 0.607222 0.607087 0.646288 0.570251 0.607087 0.606951 0.646154 0.607087 0.646288 0.646154 0.687874 0.607222 0.646428 0.646288 0.688004 0.646428 0.68813 0.688004 0.732405 0.646288 0.688004 0.687874 0.732275 0.688004 0.732405 0.732275 0.779531 0.472367 0.502947 0.502832 0.535363 0.502947 0.535487 0.535363 0.569982 0.502832 0.535363 0.535261 0.569873 0.535363 0.569982 0.569873 0.606709 0.535487 0.57011 0.569982 0.606823 0.57011 0.606951 0.606823 0.646027 0.569982 0.606823 0.606709 0.64591 0.606823 0.646027 0.64591 0.68763 0.535261 0.569873 0.569783 0.606611 0.569873 0.606709 0.606611 0.645807 0.569783 0.606611 0.606531 0.64572 0.606611 0.645807 0.64572 0.687431 0.606709 0.64591 0.645807 0.687523 0.64591 0.68763 0.687523 0.731921 0.645807 0.687523 0.687431 0.731824 0.687523 0.731921 0.731824 0.779074 0.606951 0.646154 0.646027 0.687748 0.646154 0.687874 0.687748 0.73215 0.646027 0.687748 0.68763 0.732031 0.687748 0.73215 0.732031 0.779286 0.687874 0.732275 0.73215 0.779406 0.732275 0.779531 0.779406 0.829702 0.73215 0.779406 0.779286 0.829581 0.779406 0.829702 0.829581 0.883112 0.68763 0.732031 0.731921 0.779175 0.732031 0.779286 0.779175 0.829468 0.731921 0.779175 0.779074 0.829363 0.779175 0.829468 0.829363 0.88289 0.779286 0.829581 0.829468 0.882997 0.829581 0.883112 0.882997 0.939972 0.829468 0.882997 0.88289 0.939862 0.882997 0.939972 0.939862 1.0005 0.60688 0.647317 0.646612 0.688205 0.647317 0.687753 0.688205 0.732739 0.646612 0.688205 0.68813 0.732542 0.688205 0.732739 0.732542 0.779786 0.687753 0.733515 0.732739 0.779854 0.733515 0.779277 0.779854 0.830304 0.732739 0.779854 0.779786 0.830099 0.779854 0.830304 0.830099 0.883623 0.68813 0.732542 0.732405 0.77966 0.732542 0.779786 0.77966 0.829959 0.732405 0.77966 0.779531 0.829828 0.77966 0.829959 0.829828 0.883362 0.779786 0.830099 0.829959 0.883493 0.830099 0.883623 0.883493 0.940479 0.829959 0.883493 0.883362 0.940343 0.883493 0.940479 0.940343 1.00099 0.779277 0.831185 0.830304 0.883693 0.831185 0.883093 0.883693 0.940859 0.830304 0.883693 0.883623 0.940628 0.883693 0.940859 0.940628 1.00127 0.883093 0.94184 0.940859 1.00134 0.94184 1.00059 1.00134 1.0661 0.940859 1.00134 1.00127 1.06585 1.00134 1.0661 1.06585 1.13456 0.883623 0.940628 0.940479 1.00113 0.940628 1.00127 1.00113 1.06569 0.940479 1.00113 1.00099 1.06555 1.00113 1.06569 1.06555 1.13427 1.00127 1.06585 1.06569 1.13441 1.06585 1.13456 1.13441 1.20756 1.06569 1.13441 1.13427 1.20741 1.13441 1.20756 1.20741 1.28526 0.779531 0.829828 0.829702 0.883235 0.829828 0.883362 0.883235 0.940213 0.829702 0.883235 0.883112 0.940089 0.883235 0.940213 0.940089 1.00073 0.883362 0.940343 0.940213 1.00086 0.940343 1.00099 1.00086 1.06542 0.940213 1.00086 1.00073 1.06529 1.00086 1.06542 1.06529 1.13399 0.883112 0.940089 0.939972 1.00061 0.940089 1.00073 1.00061 1.06516 0.939972 1.00061 1.0005 1.06505 1.00061 1.06516 1.06505 1.13375 1.00073 1.06529 1.06516 1.13387 1.06529 1.13399 1.13387 1.207 1.06516 1.13387 1.13375 1.20688 1.13387 1.207 1.20688 1.28472 1.00099 1.06555 1.06542 1.13413 1.06555 1.13427 1.13413 1.20727 1.06542 1.13413 1.13399 1.20713 1.13413 1.20727 1.20713 1.28498 1.13427 1.20741 1.20727 1.28512 1.20741 1.28526 1.28512 1.36798 1.20727 1.28512 1.28498 1.36784 1.28512 1.36798 1.36784 1.45604 1.13399 1.20713 1.207 1.28484 1.20713 1.28498 1.28484 1.3677 1.207 1.28484 1.28472 1.36758 1.28484 1.3677 1.36758 1.45577 1.28498 1.36784 1.3677 1.4559 1.36784 1.45604 1.4559 1.54978 1.3677 1.4559 1.45577 1.54965 1.4559 1.54978 1.54965 1.64957 0.606531 0.64572 0.645649 0.687353 0.64572 0.687431 0.687353 0.731741 0.645649 0.687353 0.687289 0.731671 0.687353 0.731741 0.731671 0.77891 0.687431 0.731824 0.731741 0.778985 0.731824 0.779074 0.778985 0.82927 0.731741 0.778985 0.77891 0.829189 0.778985 0.82927 0.829189 0.882707 0.687289 0.731671 0.731616 0.778848 0.731671 0.77891 0.778848 0.829122 0.731616 0.778848 0.778801 0.829068 0.778848 0.829122 0.829068 0.882573 0.77891 0.829189 0.829122 0.882633 0.829189 0.882707 0.882633 0.939591 0.829122 0.882633 0.882573 0.939525 0.882633 0.939591 0.939525 1.00015 0.779074 0.829363 0.82927 0.882792 0.829363 0.88289 0.882792 0.939761 0.82927 0.882792 0.882707 0.93967 0.882792 0.939761 0.93967 1.0003 0.88289 0.939862 0.939761 1.0004 0.939862 1.0005 1.0004 1.06494 0.939761 1.0004 1.0003 1.06484 1.0004 1.06494 1.06484 1.13354 0.882707 0.93967 0.939591 1.00022 0.93967 1.0003 1.00022 1.06475 0.939591 1.00022 1.00015 1.06467 1.00022 1.06475 1.06467 1.13336 1.0003 1.06484 1.06475 1.13344 1.06484 1.13354 1.13344 1.20656 1.06475 1.13344 1.13336 1.20647 1.13344 1.20656 1.20647 1.28429 0.778801 0.829068 0.829029 0.882527 0.829068 0.882573 0.882527 0.939472 0.829029 0.882527 0.882497 0.939434 0.882527 0.939472 0.939434 1.00004 0.882573 0.939525 0.939472 1.00009 0.939525 1.00015 1.00009 1.06461 0.939472 1.00009 1.00004 1.06455 1.00009 1.06461 1.06455 1.13323 0.882497 0.939434 0.939413 1.00001 0.939434 1.00004 1.00001 1.06452 0.939413 1.00001 1 1.06449 1.00001 1.06452 1.06449 1.13315 1.00004 1.06455 1.06452 1.13318 1.06455 1.13323 1.13318 1.20627 1.06452 1.13318 1.13315 1.20623 1.13318 1.20627 1.20623 1.28403 1.00015 1.06467 1.06461 1.13329 1.06467 1.13336 1.13329 1.20639 1.06461 1.13329 1.13323 1.20632 1.13329 1.20639 1.20632 1.28414 1.13336 1.20647 1.20639 1.28421 1.20647 1.28429 1.28421 1.36704 1.20639 1.28421 1.28414 1.36696 1.28421 1.36704 1.36696 1.45513 1.13323 1.20632 1.20627 1.28407 1.20632 1.28414 1.28407 1.36689 1.20627 1.28407 1.28403 1.36684 1.28407 1.36689 1.36684 1.45499 1.28414 1.36696 1.36689 1.45506 1.36696 1.45513 1.45506 1.5489 1.36689 1.45506 1.45499 1.54883 1.45506 1.5489 1.54883 1.64872 1.0005 1.06505 1.06494 1.13364 1.06505 1.13375 1.13364 1.20676 1.06494 1.13364 1.13354 1.20666 1.13364 1.20676 1.20666 1.28449 1.13375 1.20688 1.20676 1.2846 1.20688 1.28472 1.2846 1.36745 1.20676 1.2846 1.28449 1.36734 1.2846 1.36745 1.36734 1.45553 1.13354 1.20666 1.20656 1.28439 1.20666 1.28449 1.28439 1.36723 1.20656 1.28439 1.28429 1.36713 1.28439 1.36723 1.36713 1.45531 1.28449 1.36734 1.36723 1.45542 1.36734 1.45553 1.45542 1.54929 1.36723 1.45542 1.45531 1.54918 1.45542 1.54929 1.54918 1.64909 1.28472 1.36758 1.36745 1.45565 1.36758 1.45577 1.45565 1.54952 1.36745 1.45565 1.45553 1.5494 1.45565 1.54952 1.5494 1.64932 1.45577 1.54965 1.54952 1.64945 1.54965 1.64957 1.64945 1.75581 1.54952 1.64945 1.64932 1.75568 1.64945 1.75581 1.75568 1.8689 1.45553 1.5494 1.54929 1.6492 1.5494 1.64932 1.6492 1.75556 1.54929 1.6492 1.64909 1.75545 1.6492 1.75556 1.75545 1.86866 1.64932 1.75568 1.75556 1.86878 1.75568 1.8689 1.86878 1.98929 1.75556 1.86878 1.86866 1.98917 1.86878 1.98929 1.98917 2.11745 1.28429 1.36713 1.36704 1.45522 1.36713 1.45531 1.45522 1.54908 1.36704 1.45522 1.45513 1.54898 1.45522 1.54908 1.54898 1.64889 1.45531 1.54918 1.54908 1.64899 1.54918 1.64909 1.64899 1.75534 1.54908 1.64899 1.64889 1.75524 1.64899 1.75534 1.75524 1.86844 1.45513 1.54898 1.5489 1.6488 1.54898 1.64889 1.6488 1.75514 1.5489 1.6488 1.64872 1.75505 1.6488 1.75514 1.75505 1.86825 1.64889 1.75524 1.75514 1.86834 1.75524 1.86844 1.86834 1.98884 1.75514 1.86834 1.86825 1.98874 1.86834 1.98884 1.98874 2.117 1.64909 1.75545 1.75534 1.86855 1.75545 1.86866 1.86855 1.98906 1.75534 1.86855 1.86844 1.98894 1.86855 1.98906 1.98894 2.11722 1.86866 1.98917 1.98906 2.11733 1.98917 2.11745 2.11733 2.25388 1.98906 2.11733 2.11722 2.25376 2.11733 2.25388 2.25376 2.39911 1.86844 1.98894 1.98884 2.11711 1.98894 2.11722 2.11711 2.25365 1.98884 2.11711 2.117 2.25353 2.11711 2.25365 2.25353 2.39888 2.11722 2.25376 2.25365 2.39899 2.25376 2.39911 2.39899 2.55371 2.25365 2.39899 2.39888 2.55359 2.39899 2.55371 2.55359 2.71828 1.00059 1.06723 1.0661 1.13464 1.06723 1.13386 1.13464 1.20802 1.0661 1.13464 1.13456 1.20774 1.13464 1.20802 1.20774 1.28558 1.13386 1.20928 1.20802 1.28566 1.20928 1.2847 1.28566 1.3688 1.20802 1.28566 1.28558 1.36849 1.28566 1.3688 1.36849 1.45668 1.13456 1.20774 1.20756 1.28542 1.20774 1.28558 1.28542 1.3683 1.20756 1.28542 1.28526 1.36813 1.28542 1.3683 1.36813 1.45634 1.28558 1.36849 1.3683 1.45651 1.36849 1.45668 1.45651 1.5504 1.3683 1.45651 1.45634 1.55023 1.45651 1.5504 1.55023 1.65016 1.2847 1.37024 1.3688 1.45678 1.37024 1.45579 1.45678 1.55098 1.3688 1.45678 1.45668 1.55061 1.45678 1.55098 1.55061 1.65053 1.45579 1.5526 1.55098 1.65063 1.5526 1.64941 1.65063 1.75734 1.55098 1.65063 1.65053 1.75694 1.65063 1.75734 1.75694 1.87014 1.45668 1.55061 1.5504 1.65034 1.55061 1.65053 1.65034 1.75672 1.5504 1.65034 1.65016 1.75653 1.65034 1.75672 1.75653 1.86975 1.65053 1.75694 1.75672 1.86993 1.75694 1.87014 1.86993 1.99044 1.75672 1.86993 1.86975 1.99026 1.86993 1.99044 1.99026 2.11851 1.28526 1.36813 1.36798 1.45618 1.36813 1.45634 1.45618 1.55007 1.36798 1.45618 1.45604 1.54992 1.45618 1.55007 1.54992 1.64985 1.45634 1.55023 1.55007 1.65 1.55023 1.65016 1.65 1.75637 1.55007 1.65 1.64985 1.75622 1.65 1.75637 1.75622 1.86944 1.45604 1.54992 1.54978 1.64971 1.54992 1.64985 1.64971 1.75608 1.54978 1.64971 1.64957 1.75594 1.64971 1.75608 1.75594 1.86916 1.64985 1.75622 1.75608 1.86929 1.75622 1.86944 1.86929 1.98981 1.75608 1.86929 1.86916 1.98967 1.86929 1.98981 1.98967 2.11795 1.65016 1.75653 1.75637 1.86959 1.75653 1.86975 1.86959 1.99009 1.75637 1.86959 1.86944 1.98995 1.86959 1.99009 1.98995 2.11822 1.86975 1.99026 1.99009 2.11836 1.99026 2.11851 2.11836 2.25488 1.99009 2.11836 2.11822 2.25474 2.11836 2.25488 2.25474 2.40006 1.86944 1.98995 1.98981 2.11808 1.98995 2.11822 2.11808 2.25462 1.98981 2.11808 2.11795 2.25449 2.11808 2.25462 2.25449 2.39983 2.11822 2.25474 2.25462 2.39995 2.25474 2.40006 2.39995 2.55464 2.25462 2.39995 2.39983 2.55453 2.39995 2.55464 2.55453 2.7192 1.64941 1.75921 1.75734 1.87025 1.75921 1.86902 1.87025 1.99113 1.75734 1.87025 1.87014 1.99068 1.87025 1.99113 1.99068 2.11889 1.86902 1.99325 1.99113 2.11899 1.99325 2.11747 2.11899 2.25583 1.99113 2.11899 2.11889 2.2554 2.11899 2.25583 2.2554 2.40057 1.87014 1.99068 1.99044 2.11869 1.99068 2.11889 2.11869 2.25518 1.99044 2.11869 2.11851 2.25502 2.11869 2.25518 2.25502 2.4003 2.11889 2.2554 2.25518 2.40043 2.2554 2.40057 2.40043 2.55501 2.25518 2.40043 2.4003 2.55492 2.40043 2.55501 2.55492 2.71946 2.11747 2.25809 2.25583 2.40057 2.25809 2.3987 2.40057 2.55553 2.25583 2.40057 2.40057 2.55514 2.40057 2.55553 2.55514 2.71948 2.3987 2.55849 2.55553 2.71936 2.55849 2.71828 2.71936 2.8936 2.55553 2.71936 2.71948 2.8943 2.71936 2.8936 2.8943 3.08022 2.40057 2.55514 2.55501 2.71949 2.55514 2.71948 2.71949 2.8945 2.55501 2.71949 2.71946 2.89457 2.71949 2.8945 2.89457 3.08092 2.71948 2.8943 2.8945 3.08071 2.8943 3.08022 3.08071 3.27887 2.8945 3.08071 3.08092 3.27925 3.08071 3.27887 3.27925 3.49034 2.11851 2.25502 2.25488 2.40018 2.25502 2.4003 2.40018 2.55483 2.25488 2.40018 2.40006 2.55473 2.40018 2.55483 2.55473 2.71936 2.4003 2.55492 2.55483 2.71942 2.55492 2.71946 2.71942 2.89459 2.55483 2.71942 2.71936 2.89457 2.71942 2.89459 2.89457 3.08106 2.40006 2.55473 2.55464 2.71928 2.55473 2.71936 2.71928 2.89453 2.55464 2.71928 2.7192 2.89447 2.71928 2.89453 2.89447 3.08103 2.71936 2.89457 2.89453 3.08106 2.89457 3.08106 3.08106 3.2796 2.89453 3.08106 3.08103 3.2796 3.08106 3.2796 3.2796 3.49097 2.71946 2.89457 2.89459 3.08103 2.89457 3.08092 3.08103 3.27945 2.89459 3.08103 3.08106 3.27955 3.08103 3.27945 3.27955 3.49082 3.08092 3.27925 3.27945 3.49065 3.27925 3.49034 3.49065 3.71545 3.27945 3.49065 3.49082 3.7157 3.49065 3.71545 3.7157 3.95508 3.08106 3.27955 3.2796 3.49092 3.27955 3.49082 3.49092 3.71586 3.2796 3.49092 3.49097 3.71595 3.49092 3.71586 3.71595 3.95543 3.49082 3.7157 3.71586 3.95529 3.7157 3.95508 3.95529 4.21016 3.71586 3.95529 3.95543 4.21034 3.95529 4.21016 4.21034 4.48169 1.64957 1.75594 1.75581 1.86903 1.75594 1.86916 1.86903 1.98954 1.75581 1.86903 1.8689 1.98942 1.86903 1.98954 1.98942 2.1177 1.86916 1.98967 1.98954 2.11782 1.98967 2.11795 2.11782 2.25437 1.98954 2.11782 2.1177 2.25425 2.11782 2.25437 2.25425 2.3996 1.8689 1.98942 1.98929 2.11757 1.98942 2.1177 2.11757 2.25413 1.98929 2.11757 2.11745 2.254 2.11757 2.25413 2.254 2.39936 2.1177 2.25425 2.25413 2.39948 2.25425 2.3996 2.39948 2.5542 2.25413 2.39948 2.39936 2.55408 2.39948 2.5542 2.55408 2.71878 2.11795 2.25449 2.25437 2.39972 2.25449 2.39983 2.39972 2.55443 2.25437 2.39972 2.3996 2.55432 2.39972 2.55443 2.55432 2.719 2.39983 2.55453 2.55443 2.71911 2.55453 2.7192 2.71911 2.89439 2.55443 2.71911 2.719 2.8943 2.71911 2.89439 2.8943 3.0809 2.3996 2.55432 2.5542 2.71889 2.55432 2.719 2.71889 2.8942 2.5542 2.71889 2.71878 2.89409 2.71889 2.8942 2.89409 3.08071 2.719 2.8943 2.8942 3.08081 2.8943 3.0809 3.08081 3.27945 2.8942 3.08081 3.08071 3.27936 3.08081 3.27945 3.27936 3.49081 2.11745 2.254 2.25388 2.39923 2.254 2.39936 2.39923 2.55396 2.25388 2.39923 2.39911 2.55383 2.39923 2.55396 2.55383 2.71853 2.39936 2.55408 2.55396 2.71866 2.55408 2.71878 2.71866 2.89398 2.55396 2.71866 2.71853 2.89385 2.71866 2.89398 2.89385 3.08048 2.39911 2.55383 2.55371 2.71841 2.55383 2.71853 2.71841 2.89372 2.55371 2.71841 2.71828 2.8936 2.71841 2.89372 2.8936 3.08022 2.71853 2.89385 2.89372 3.08035 2.89385 3.08048 3.08035 3.27901 2.89372 3.08035 3.08022 3.27887 3.08035 3.27901 3.27887 3.49034 2.71878 2.89409 2.89398 3.0806 2.89409 3.08071 3.0806 3.27925 2.89398 3.0806 3.08048 3.27913 3.0806 3.27925 3.27913 3.4906 3.08071 3.27936 3.27925 3.49071 3.27936 3.49081 3.49071 3.71581 3.27925 3.49071 3.4906 3.71571 3.49071 3.71581 3.71571 3.95532 3.08048 3.27913 3.27901 3.49048 3.27913 3.4906 3.49048 3.71558 3.27901 3.49048 3.49034 3.71545 3.49048 3.71558 3.71545 3.95508 3.4906 3.71571 3.71558 3.95521 3.71571 3.95532 3.95521 4.21029 3.71558 3.95521 3.95508 4.21016 3.95521 4.21029 4.21016 4.48169 2.7192 2.89447 2.89439 3.08097 2.89447 3.08103 3.08097 3.27958 2.89439 3.08097 3.0809 3.27952 3.08097 3.27958 3.27952 3.49094 3.08103 3.2796 3.27958 3.49097 3.2796 3.49097 3.49097 3.71599 3.27958 3.49097 3.49094 3.71599 3.49097 3.71599 3.71599 3.95554 3.0809 3.27952 3.27945 3.49089 3.27952 3.49094 3.49089 3.71596 3.27945 3.49089 3.49081 3.7159 3.49089 3.71596 3.7159 3.95549 3.49094 3.71599 3.71596 3.95553 3.71599 3.95554 3.95553 4.21055 3.71596 3.95553 3.95549 4.21053 3.95553 4.21055 4.21053 4.48201 3.49097 3.71595 3.71599 3.95551 3.71595 3.95543 3.95551 4.21046 3.71599 3.95551 3.95554 4.21053 3.95551 4.21046 4.21053 4.48195 3.95543 4.21034 4.21046 4.48185 4.21034 4.48169 4.48185 4.77073 4.21046 4.48185 4.48195 4.77087 4.48185 4.77073 4.77087 5.07842 3.95554 4.21053 4.21055 4.482 4.21053 4.48195 4.482 4.77095 4.21055 4.482 4.48201 4.77099 4.482 4.77095 4.77099 5.0786 4.48195 4.77087 4.77095 5.07854 4.77087 5.07842 5.07854 5.40595 4.77095 5.07854 5.0786 5.40605 5.07854 5.40595 5.40605 5.7546 3.49081 3.7159 3.71581 3.95542 3.7159 3.95549 3.95542 4.21047 3.71581 3.95542 3.95532 4.21039 3.95542 4.21047 4.21039 4.48191 3.95549 4.21053 4.21047 4.48198 4.21053 4.48201 4.48198 4.77098 4.21047 4.48198 4.48191 4.77093 4.48198 4.77098 4.77093 5.07859 3.95532 4.21039 4.21029 4.48181 4.21039 4.48191 4.48181 4.77085 4.21029 4.48181 4.48169 4.77073 4.48181 4.77085 4.77073 5.07842 4.48191 4.77093 4.77085 5.07852 4.77093 5.07859 5.07852 5.40604 4.77085 5.07852 5.07842 5.40595 5.07852 5.40604 5.40595 5.7546 4.48201 4.77099 4.77098 5.07862 4.77099 5.0786 5.07862 5.4061 4.77098 5.07862 5.07859 5.40609 5.07862 5.4061 5.40609 5.75471 5.0786 5.40605 5.4061 5.75468 5.40605 5.7546 5.75468 6.12574 5.4061 5.75468 5.75471 6.1258 5.75468 6.12574 6.1258 6.52082 5.07859 5.40609 5.40604 5.75468 5.40609 5.75471 5.75468 6.1258 5.40604 5.75468 5.7546 6.12574 5.75468 6.1258 6.12574 6.52082 5.75471 6.1258 6.1258 6.52085 6.1258 6.52082 6.52085 6.94138 6.1258 6.52085 6.52082 6.94138 6.52085 6.94138 6.94138 7.38906 
SCALARS L2_error double 1
LOOKUP_TABLE default