# vtk DataFile Version 3.0
#This file was generated by the deal.II library on 2020/3/19 at 13:55:07
ASCII
DATASET UNSTRUCTURED_GRID

POINTS 4216 double
-1 -1 0
-0.75 -1 0
-1 -0.75 0
-0.75 -0.75 0
-0.25 -0.25 0
-0.125 -0.25 0
-0.25 -0.125 0
-0.125 -0.125 0
0.25 -0.75 0
0.375 -0.75 0
0.25 -0.625 0
0.375 -0.625 0
0.875 -1 0
1 -1 0
0.875 -0.875 0
1 -0.875 0
0 -0.5 0
0.125 -0.5 0
0 -0.375 0
0.125 -0.375 0
-0.75 0.25 0
-0.625 0.25 0
-0.75 0.375 0
-0.625 0.375 0
-0.5 0 0
-0.375 0 0
-0.5 0.125 0
-0.375 0.125 0
-1 0.875 0
-0.875 0.875 0
-1 1 0
-0.875 1 0
-0.25 -1 0
-0.125 -1 0
-0.25 -0.875 0
-0.125 -0.875 0
-0.125 -1 0
0 -1 0
-0.125 -0.875 0
0 -0.875 0
-0.25 -0.875 0
-0.125 -0.875 0
-0.25 -0.75 0
-0.125 -0.75 0
-0.125 -0.875 0
0 -0.875 0
-0.125 -0.75 0
0 -0.75 0
-0.5 -0.75 0
-0.375 -0.75 0
-0.5 -0.625 0
-0.375 -0.625 0
-0.375 -0.75 0
-0.25 -0.75 0
-0.375 -0.625 0
-0.25 -0.625 0
-0.5 -0.625 0
-0.375 -0.625 0
-0.5 -0.5 0
-0.375 -0.5 0
-0.375 -0.625 0
-0.25 -0.625 0
-0.375 -0.5 0
-0.25 -0.5 0
-0.25 -0.75 0
-0.125 -0.75 0
-0.25 -0.625 0
-0.125 -0.625 0
-0.125 -0.75 0
0 -0.75 0
-0.125 -0.625 0
0 -0.625 0
-0.25 -0.625 0
-0.125 -0.625 0
-0.25 -0.5 0
-0.125 -0.5 0
-0.125 -0.625 0
0 -0.625 0
-0.125 -0.5 0
0 -0.5 0
-0.75 -0.5 0
-0.625 -0.5 0
-0.75 -0.375 0
-0.625 -0.375 0
-0.625 -0.5 0
-0.5 -0.5 0
-0.625 -0.375 0
-0.5 -0.375 0
-0.75 -0.375 0
-0.625 -0.375 0
-0.75 -0.25 0
-0.625 -0.25 0
-0.625 -0.375 0
-0.5 -0.375 0
-0.625 -0.25 0
-0.5 -0.25 0
-1 -0.25 0
-0.875 -0.25 0
-1 -0.125 0
-0.875 -0.125 0
-0.875 -0.25 0
-0.75 -0.25 0
-0.875 -0.125 0
-0.75 -0.125 0
-1 -0.125 0
-0.875 -0.125 0
-1 0 0
-0.875 0 0
-0.875 -0.125 0
-0.75 -0.125 0
-0.875 0 0
-0.75 0 0
-0.75 -0.25 0
-0.625 -0.25 0
-0.75 -0.125 0
-0.625 -0.125 0
-0.625 -0.25 0
-0.5 -0.25 0
-0.625 -0.125 0
-0.5 -0.125 0
-0.75 -0.125 0
-0.625 -0.125 0
-0.75 0 0
-0.625 0 0
-0.625 -0.125 0
-0.5 -0.125 0
-0.625 0 0
-0.5 0 0
-0.5 -0.5 0
-0.375 -0.5 0
-0.5 -0.375 0
-0.375 -0.375 0
-0.375 -0.5 0
-0.25 -0.5 0
-0.375 -0.375 0
-0.25 -0.375 0
-0.5 -0.375 0
-0.375 -0.375 0
-0.5 -0.25 0
-0.375 -0.25 0
-0.375 -0.375 0
-0.25 -0.375 0
-0.375 -0.25 0
-0.25 -0.25 0
-0.25 -0.5 0
-0.125 -0.5 0
-0.25 -0.375 0
-0.125 -0.375 0
-0.125 -0.5 0
0 -0.5 0
-0.125 -0.375 0
0 -0.375 0
-0.25 -0.375 0
-0.125 -0.375 0
-0.25 -0.25 0
-0.125 -0.25 0
-0.125 -0.375 0
0 -0.375 0
-0.125 -0.25 0
0 -0.25 0
-0.5 -0.25 0
-0.375 -0.25 0
-0.5 -0.125 0
-0.375 -0.125 0
-0.375 -0.25 0
-0.25 -0.25 0
-0.375 -0.125 0
-0.25 -0.125 0
-0.5 -0.125 0
-0.375 -0.125 0
-0.5 0 0
-0.375 0 0
-0.375 -0.125 0
-0.25 -0.125 0
-0.375 0 0
-0.25 0 0
0 -1 0
0.125 -1 0
0 -0.875 0
0.125 -0.875 0
0.125 -1 0
0.25 -1 0
0.125 -0.875 0
0.25 -0.875 0
0 -0.875 0
0.125 -0.875 0
0 -0.75 0
0.125 -0.75 0
0.125 -0.875 0
0.25 -0.875 0
0.125 -0.75 0
0.25 -0.75 0
0.25 -1 0
0.375 -1 0
0.25 -0.875 0
0.375 -0.875 0
0.375 -1 0
0.5 -1 0
0.375 -0.875 0
0.5 -0.875 0
0.25 -0.875 0
0.375 -0.875 0
0.25 -0.75 0
0.375 -0.75 0
0.375 -0.875 0
0.5 -0.875 0
0.375 -0.75 0
0.5 -0.75 0
0 -0.75 0
0.125 -0.75 0
0 -0.625 0
0.125 -0.625 0
0.125 -0.75 0
0.25 -0.75 0
0.125 -0.625 0
0.25 -0.625 0
0 -0.625 0
0.125 -0.625 0
0 -0.5 0
0.125 -0.5 0
0.125 -0.625 0
0.25 -0.625 0
0.125 -0.5 0
0.25 -0.5 0
0.5 -1 0
0.625 -1 0
0.5 -0.875 0
0.625 -0.875 0
0.625 -1 0
0.75 -1 0
0.625 -0.875 0
0.75 -0.875 0
-1 0 0
-0.875 0 0
-1 0.125 0
-0.875 0.125 0
-0.875 0 0
-0.75 0 0
-0.875 0.125 0
-0.75 0.125 0
-1 0.125 0
-0.875 0.125 0
-1 0.25 0
-0.875 0.25 0
-0.875 0.125 0
-0.75 0.125 0
-0.875 0.25 0
-0.75 0.25 0
-0.75 0 0
-0.625 0 0
-0.75 0.125 0
-0.625 0.125 0
-0.625 0 0
-0.5 0 0
-0.625 0.125 0
-0.5 0.125 0
-0.75 0.125 0
-0.625 0.125 0
-0.75 0.25 0
-0.625 0.25 0
-0.625 0.125 0
-0.5 0.125 0
-0.625 0.25 0
-0.5 0.25 0
-1 0.25 0
-0.875 0.25 0
-1 0.375 0
-0.875 0.375 0
-0.875 0.25 0
-0.75 0.25 0
-0.875 0.375 0
-0.75 0.375 0
-1 0.375 0
-0.875 0.375 0
-1 0.5 0
-0.875 0.5 0
-0.875 0.375 0
-0.75 0.375 0
-0.875 0.5 0
-0.75 0.5 0
-1 0.5 0
-0.875 0.5 0
-1 0.625 0
-0.875 0.625 0
-1 0.625 0
-0.875 0.625 0
-1 0.75 0
-0.875 0.75 0
-0.75 -1 0
-0.625 -1 0
-0.75 -0.875 0
-0.625 -0.875 0
-0.625 -1 0
-0.5 -1 0
-0.625 -0.875 0
-0.5 -0.875 0
-0.75 -0.875 0
-0.625 -0.875 0
-0.75 -0.75 0
-0.625 -0.75 0
-0.625 -0.875 0
-0.5 -0.875 0
-0.625 -0.75 0
-0.5 -0.75 0
-1 -0.75 0
-0.875 -0.75 0
-1 -0.625 0
-0.875 -0.625 0
-0.875 -0.75 0
-0.75 -0.75 0
-0.875 -0.625 0
-0.75 -0.625 0
-1 -0.625 0
-0.875 -0.625 0
-1 -0.5 0
-0.875 -0.5 0
-0.875 -0.625 0
-0.75 -0.625 0
-0.875 -0.5 0
-0.75 -0.5 0
-0.75 -0.75 0
-0.625 -0.75 0
-0.75 -0.625 0
-0.625 -0.625 0
-0.625 -0.75 0
-0.5 -0.75 0
-0.625 -0.625 0
-0.5 -0.625 0
-0.75 -0.625 0
-0.625 -0.625 0
-0.75 -0.5 0
-0.625 -0.5 0
-0.625 -0.625 0
-0.5 -0.625 0
-0.625 -0.5 0
-0.5 -0.5 0
-0.5 -1 0
-0.375 -1 0
-0.5 -0.875 0
-0.375 -0.875 0
-0.375 -1 0
-0.25 -1 0
-0.375 -0.875 0
-0.25 -0.875 0
-0.5 -0.875 0
-0.375 -0.875 0
-0.5 -0.75 0
-0.375 -0.75 0
-0.375 -0.875 0
-0.25 -0.875 0
-0.375 -0.75 0
-0.25 -0.75 0
-1 -0.5 0
-0.875 -0.5 0
-1 -0.375 0
-0.875 -0.375 0
-0.875 -0.5 0
-0.75 -0.5 0
-0.875 -0.375 0
-0.75 -0.375 0
-1 -0.375 0
-0.875 -0.375 0
-1 -0.25 0
-0.875 -0.25 0
-0.875 -0.375 0
-0.75 -0.375 0
-0.875 -0.25 0
-0.75 -0.25 0
0.625 0.375 0
0.6875 0.375 0
0.625 0.4375 0
0.6875 0.4375 0
0.75 0.25 0
0.8125 0.25 0
0.75 0.3125 0
0.8125 0.3125 0
0.375 0.625 0
0.4375 0.625 0
0.375 0.6875 0
0.4375 0.6875 0
0.25 0.75 0
0.3125 0.75 0
0.25 0.8125 0
0.3125 0.8125 0
0.625 -0.375 0
0.6875 -0.375 0
0.625 -0.3125 0
0.6875 -0.3125 0
0.6875 -0.375 0
0.75 -0.375 0
0.6875 -0.3125 0
0.75 -0.3125 0
0.625 -0.3125 0
0.6875 -0.3125 0
0.625 -0.25 0
0.6875 -0.25 0
0.6875 -0.3125 0
0.75 -0.3125 0
0.6875 -0.25 0
0.75 -0.25 0
0.75 -0.5 0
0.8125 -0.5 0
0.75 -0.4375 0
0.8125 -0.4375 0
0.8125 -0.5 0
0.875 -0.5 0
0.8125 -0.4375 0
0.875 -0.4375 0
0.75 -0.4375 0
0.8125 -0.4375 0
0.75 -0.375 0
0.8125 -0.375 0
0.8125 -0.4375 0
0.875 -0.4375 0
0.8125 -0.375 0
0.875 -0.375 0
0.875 -0.5 0
0.9375 -0.5 0
0.875 -0.4375 0
0.9375 -0.4375 0
0.9375 -0.5 0
1 -0.5 0
0.9375 -0.4375 0
1 -0.4375 0
0.875 -0.4375 0
0.9375 -0.4375 0
0.875 -0.375 0
0.9375 -0.375 0
0.9375 -0.4375 0
1 -0.4375 0
0.9375 -0.375 0
1 -0.375 0
0.75 -0.375 0
0.8125 -0.375 0
0.75 -0.3125 0
0.8125 -0.3125 0
0.8125 -0.375 0
0.875 -0.375 0
0.8125 -0.3125 0
0.875 -0.3125 0
0.75 -0.3125 0
0.8125 -0.3125 0
0.75 -0.25 0
0.8125 -0.25 0
0.8125 -0.3125 0
0.875 -0.3125 0
0.8125 -0.25 0
0.875 -0.25 0
0.875 -0.375 0
0.9375 -0.375 0
0.875 -0.3125 0
0.9375 -0.3125 0
0.9375 -0.375 0
1 -0.375 0
0.9375 -0.3125 0
1 -0.3125 0
0.875 -0.3125 0
0.9375 -0.3125 0
0.875 -0.25 0
0.9375 -0.25 0
0.9375 -0.3125 0
1 -0.3125 0
0.9375 -0.25 0
1 -0.25 0
0.5 -0.25 0
0.5625 -0.25 0
0.5 -0.1875 0
0.5625 -0.1875 0
0.5625 -0.25 0
0.625 -0.25 0
0.5625 -0.1875 0
0.625 -0.1875 0
0.5 -0.1875 0
0.5625 -0.1875 0
0.5 -0.125 0
0.5625 -0.125 0
0.5625 -0.1875 0
0.625 -0.1875 0
0.5625 -0.125 0
0.625 -0.125 0
0.625 -0.25 0
0.6875 -0.25 0
0.625 -0.1875 0
0.6875 -0.1875 0
0.6875 -0.25 0
0.75 -0.25 0
0.6875 -0.1875 0
0.75 -0.1875 0
0.625 -0.1875 0
0.6875 -0.1875 0
0.625 -0.125 0
0.6875 -0.125 0
0.6875 -0.1875 0
0.75 -0.1875 0
0.6875 -0.125 0
0.75 -0.125 0
0.5 -0.125 0
0.5625 -0.125 0
0.5 -0.0625 0
0.5625 -0.0625 0
0.5625 -0.125 0
0.625 -0.125 0
0.5625 -0.0625 0
0.625 -0.0625 0
0.5 -0.0625 0
0.5625 -0.0625 0
0.5 0 0
0.5625 0 0
0.5625 -0.0625 0
0.625 -0.0625 0
0.5625 0 0
0.625 0 0
0.625 -0.125 0
0.6875 -0.125 0
0.625 -0.0625 0
0.6875 -0.0625 0
0.6875 -0.125 0
0.75 -0.125 0
0.6875 -0.0625 0
0.75 -0.0625 0
0.625 -0.0625 0
0.6875 -0.0625 0
0.625 0 0
0.6875 0 0
0.6875 -0.0625 0
0.75 -0.0625 0
0.6875 0 0
0.75 0 0
0.75 -0.25 0
0.8125 -0.25 0
0.75 -0.1875 0
0.8125 -0.1875 0
0.8125 -0.25 0
0.875 -0.25 0
0.8125 -0.1875 0
0.875 -0.1875 0
0.75 -0.1875 0
0.8125 -0.1875 0
0.75 -0.125 0
0.8125 -0.125 0
0.8125 -0.1875 0
0.875 -0.1875 0
0.8125 -0.125 0
0.875 -0.125 0
0.875 -0.25 0
0.9375 -0.25 0
0.875 -0.1875 0
0.9375 -0.1875 0
0.9375 -0.25 0
1 -0.25 0
0.9375 -0.1875 0
1 -0.1875 0
0.875 -0.1875 0
0.9375 -0.1875 0
0.875 -0.125 0
0.9375 -0.125 0
0.9375 -0.1875 0
1 -0.1875 0
0.9375 -0.125 0
1 -0.125 0
0.75 -0.125 0
0.8125 -0.125 0
0.75 -0.0625 0
0.8125 -0.0625 0
0.8125 -0.125 0
0.875 -0.125 0
0.8125 -0.0625 0
0.875 -0.0625 0
0.75 -0.0625 0
0.8125 -0.0625 0
0.75 0 0
0.8125 0 0
0.8125 -0.0625 0
0.875 -0.0625 0
0.8125 0 0
0.875 0 0
0.875 -0.125 0
0.9375 -0.125 0
0.875 -0.0625 0
0.9375 -0.0625 0
0.9375 -0.125 0
1 -0.125 0
0.9375 -0.0625 0
1 -0.0625 0
0.875 -0.0625 0
0.9375 -0.0625 0
0.875 0 0
0.9375 0 0
0.9375 -0.0625 0
1 -0.0625 0
0.9375 0 0
1 0 0
-0.375 0.625 0
-0.3125 0.625 0
-0.375 0.6875 0
-0.3125 0.6875 0
-0.3125 0.625 0
-0.25 0.625 0
-0.3125 0.6875 0
-0.25 0.6875 0
-0.375 0.6875 0
-0.3125 0.6875 0
-0.375 0.75 0
-0.3125 0.75 0
-0.3125 0.6875 0
-0.25 0.6875 0
-0.3125 0.75 0
-0.25 0.75 0
-0.25 0.5 0
-0.1875 0.5 0
-0.25 0.5625 0
-0.1875 0.5625 0
-0.1875 0.5 0
-0.125 0.5 0
-0.1875 0.5625 0
-0.125 0.5625 0
-0.25 0.5625 0
-0.1875 0.5625 0
-0.25 0.625 0
-0.1875 0.625 0
-0.1875 0.5625 0
-0.125 0.5625 0
-0.1875 0.625 0
-0.125 0.625 0
-0.125 0.5 0
-0.0625 0.5 0
-0.125 0.5625 0
-0.0625 0.5625 0
-0.0625 0.5 0
0 0.5 0
-0.0625 0.5625 0
0 0.5625 0
-0.125 0.5625 0
-0.0625 0.5625 0
-0.125 0.625 0
-0.0625 0.625 0
-0.0625 0.5625 0
0 0.5625 0
-0.0625 0.625 0
0 0.625 0
-0.25 0.625 0
-0.1875 0.625 0
-0.25 0.6875 0
-0.1875 0.6875 0
-0.1875 0.625 0
-0.125 0.625 0
-0.1875 0.6875 0
-0.125 0.6875 0
-0.25 0.6875 0
-0.1875 0.6875 0
-0.25 0.75 0
-0.1875 0.75 0
-0.1875 0.6875 0
-0.125 0.6875 0
-0.1875 0.75 0
-0.125 0.75 0
-0.125 0.625 0
-0.0625 0.625 0
-0.125 0.6875 0
-0.0625 0.6875 0
-0.0625 0.625 0
0 0.625 0
-0.0625 0.6875 0
0 0.6875 0
-0.125 0.6875 0
-0.0625 0.6875 0
-0.125 0.75 0
-0.0625 0.75 0
-0.0625 0.6875 0
0 0.6875 0
-0.0625 0.75 0
0 0.75 0
-0.5 0.75 0
-0.4375 0.75 0
-0.5 0.8125 0
-0.4375 0.8125 0
-0.4375 0.75 0
-0.375 0.75 0
-0.4375 0.8125 0
-0.375 0.8125 0
-0.5 0.8125 0
-0.4375 0.8125 0
-0.5 0.875 0
-0.4375 0.875 0
-0.4375 0.8125 0
-0.375 0.8125 0
-0.4375 0.875 0
-0.375 0.875 0
-0.375 0.75 0
-0.3125 0.75 0
-0.375 0.8125 0
-0.3125 0.8125 0
-0.3125 0.75 0
-0.25 0.75 0
-0.3125 0.8125 0
[...]
POINT_DATA 4216
SCALARS solution double 1
LOOKUP_TABLE default
0.135335 0.173774 0.173774 0.222669 0.606293 0.68686 0.68686 0.778651 0.606362 0.68695 0.686906 0.77871 0.882497 1 0.999627 1.13315 0.606306 0.686881 0.686866 0.778664 0.606362 0.686906 0.68695 0.77871 0.606306 0.686866 0.686881 0.778664 0.882497 0.999627 1 1.13315 0.286505 0.324652 0.324646 0.367856 0.324652 0.367879 0.367856 0.41682 0.324646 0.367856 0.367851 0.4168 0.367856 0.41682 0.4168 0.472271 0.286557 0.324659 0.324674 0.367857 0.324659 0.367851 0.367857 0.416795 0.324674 0.367857 0.367854 0.416795 0.367857 0.416795 0.416795 0.47225 0.367851 0.4168 0.416795 0.472255 0.4168 0.472271 0.472255 0.53509 0.416795 0.472255 0.47225 0.535077 0.472255 0.53509 0.535077 0.606306 0.286557 0.324674 0.324659 0.367857 0.324674 0.367854 0.367857 0.416795 0.324659 0.367857 0.367851 0.416795 0.367857 0.416795 0.416795 0.47225 0.286505 0.324646 0.324652 0.367856 0.324646 0.367851 0.367856 0.4168 0.324652 0.367856 0.367879 0.41682 0.367856 0.4168 0.41682 0.472271 0.367851 0.416795 0.4168 0.472255 0.416795 0.47225 0.472255 0.535077 0.4168 0.472255 0.472271 0.53509 0.472255 0.535077 0.53509 0.606306 0.367854 0.416795 0.416795 0.472248 0.416795 0.47225 0.472248 0.535073 0.416795 0.472248 0.47225 0.535073 0.472248 0.535073 0.535073 0.606293 0.47225 0.535077 0.535073 0.606296 0.535077 0.606306 0.606296 0.686866 0.535073 0.606296 0.606293 0.68686 0.606296 0.686866 0.68686 0.778654 0.47225 0.535073 0.535077 0.606296 0.535073 0.606293 0.606296 0.68686 0.535077 0.606296 0.606306 0.686866 0.606296 0.68686 0.686866 0.778654 0.367879 0.416862 0.41682 0.472306 0.416862 0.472367 0.472306 0.535167 0.41682 0.472306 0.472271 0.535117 0.472306 0.535167 0.535117 0.606362 0.472367 0.535261 0.535167 0.606425 0.535261 0.606531 0.606425 0.687031 0.535167 0.606425 0.606362 0.68695 0.606425 0.687031 0.68695 0.778745 0.472271 0.535117 0.53509 0.606326 0.535117 0.606362 0.606326 0.686906 0.53509 0.606326 0.606306 0.686881 0.606326 0.686906 0.686881 0.778682 0.606531 0.687289 0.687031 0.778619 0.687289 0.778801 0.778619 0.882252 0.367879 0.41682 0.416862 0.472306 0.41682 0.472271 0.472306 0.535117 0.416862 0.472306 0.472367 0.535167 0.472306 0.535117 0.535167 0.606362 0.472271 0.53509 0.535117 0.606326 0.53509 0.606306 0.606326 0.686881 0.535117 0.606326 0.606362 0.686906 0.606326 0.686881 0.686906 0.778682 0.472367 0.535167 0.535261 0.606425 0.535167 0.606362 0.606425 0.68695 0.535261 0.606425 0.606531 0.687031 0.606425 0.68695 0.687031 0.778745 0.606531 0.687031 0.687289 0.778619 0.687289 0.778619 0.778801 0.882252 0.173774 0.196912 0.198222 0.223273 0.196912 0.22313 0.223273 0.252891 0.198222 0.223273 0.222669 0.253004 0.223273 0.252891 0.253004 0.286557 0.173774 0.198222 0.196912 0.223273 0.198222 0.222669 0.223273 0.253004 0.196912 0.223273 0.22313 0.252891 0.223273 0.253004 0.252891 0.286557 0.222669 0.253004 0.253004 0.286508 0.253004 0.286557 0.286508 0.324674 0.253004 0.286508 0.286557 0.324674 0.286508 0.324674 0.324674 0.367854 0.22313 0.25284 0.252891 0.286519 0.25284 0.286505 0.286519 0.324646 0.252891 0.286519 0.286557 0.324659 0.286519 0.324646 0.324659 0.367851 0.22313 0.252891 0.25284 0.286519 0.252891 0.286557 0.286519 0.324659 0.25284 0.286519 0.286505 0.324646 0.286519 0.324659 0.324646 0.367851 2.718 2.89316 2.89328 3.08 2.71805 2.89322 2.89317 3.08008 2.718 2.89328 2.89316 3.08 2.71805 2.89317 2.89322 3.08008 1.28424 1.36703 1.36703 1.45516 1.36703 1.45515 1.45516 1.54897 1.36703 1.45516 1.45516 1.54898 1.45516 1.54897 1.54898 1.64885 1.28422 1.367 1.36702 1.45513 1.367 1.4551 1.45513 1.54893 1.36702 1.45513 1.45515 1.54896 1.45513 1.54893 1.54896 1.64881 1.4551 1.54889 1.54893 1.64877 1.54889 1.64872 1.64877 1.75505 1.54893 1.64877 1.64881 1.7551 1.64877 1.75505 1.7551 1.86825 1.45515 1.54896 1.54897 1.64883 1.54896 1.64881 1.64883 1.75513 1.54897 1.64883 1.64885 1.75515 1.64883 1.75513 1.75515 1.86831 1.64881 1.7551 1.75513 1.86829 1.7551 1.86825 1.86829 1.98874 1.75513 1.86829 1.86831 1.98877 1.86829 1.98874 1.98877 2.117 1.28424 1.36703 1.36702 1.45516 1.36703 1.45516 1.45516 1.54898 1.36702 1.45516 1.45515 1.54897 1.45516 1.54898 1.54897 1.64884 1.45516 1.54898 1.54898 1.64885 1.54898 1.64885 1.64885 1.75516 1.54898 1.64885 1.64884 1.75515 1.64885 1.75516 1.75515 1.86833 1.45515 1.54897 1.54896 1.64883 1.54897 1.64884 1.64883 1.75514 1.54896 1.64883 1.64882 1.75513 1.64883 1.75514 1.75513 1.8683 1.64884 1.75515 1.75514 1.86831 1.75515 1.86833 1.86831 1.98879 1.75514 1.86831 1.8683 1.98877 1.86831 1.98879 1.98877 2.11701 1.64885 1.75515 1.75516 1.86833 1.75515 1.86831 1.86833 1.98879 1.75516 1.86833 1.86833 1.9888 1.86833 1.98879 1.9888 2.11704 1.86831 1.98877 1.98879 2.11703 1.98877 2.117 2.11703 2.25353 1.98879 2.11703 2.11704 2.25356 2.11703 2.25353 2.25356 2.39888 1.86833 1.9888 1.98879 2.11703 1.9888 2.11704 2.11703 2.25356 1.98879 2.11703 2.11701 2.25353 2.11703 2.25356 2.25353 2.39887 2.11704 2.25356 2.25356 2.39889 2.25356 2.39888 2.39889 2.55359 2.25356 2.39889 2.39887 2.55358 2.39889 2.55359 2.55358 2.71828 1.28424 1.36703 1.36703 1.45516 1.36703 1.45516 1.45516 1.54898 1.36703 1.45516 1.45515 1.54897 1.45516 1.54898 1.54897 1.64885 1.28424 1.36702 1.36703 1.45516 1.36702 1.45515 1.45516 1.54897 1.36703 1.45516 1.45516 1.54898 1.45516 1.54897 1.54898 1.64884 1.45515 1.54896 1.54897 1.64883 1.54896 1.64882 1.64883 1.75513 1.54897 1.64883 1.64884 1.75514 1.64883 1.75513 1.75514 1.8683 1.45516 1.54898 1.54898 1.64885 1.54898 1.64884 1.64885 1.75515 1.54898 1.64885 1.64885 1.75516 1.64885 1.75515 1.75516 1.86833 1.64884 1.75514 1.75515 1.86831 1.75514 1.8683 1.86831 1.98877 1.75515 1.86831 1.86833 1.98879 1.86831 1.98877 1.98879 2.11701 1.28422 1.36702 1.367 1.45513 1.36702 1.45515 1.45513 1.54896 1.367 1.45513 1.4551 1.54893 1.45513 1.54896 1.54893 1.64881 1.45515 1.54897 1.54896 1.64883 1.54897 1.64885 1.64883 1.75515 1.54896 1.64883 1.64881 1.75513 1.64883 1.75515 1.75513 1.86831 1.4551 1.54893 1.54889 1.64877 1.54893 1.64881 1.64877 1.7551 1.54889 1.64877 1.64872 1.75505 1.64877 1.7551 1.75505 1.86825 1.64881 1.75513 1.7551 1.86829 1.75513 1.86831 1.86829 1.98877 1.7551 1.86829 1.86825 1.98874 1.86829 1.98877 1.98874 2.117 1.64885 1.75516 1.75515 1.86833 1.75516 1.86833 1.86833 1.9888 1.75515 1.86833 1.86831 1.98879 1.86833 1.9888 1.98879 2.11704 1.86833 1.98879 1.9888 2.11703 1.98879 2.11701 2.11703 2.25353 1.9888 2.11703 2.11704 2.25356 2.11703 2.25353 2.25356 2.39887 1.86831 1.98879 1.98877 2.11703 1.98879 2.11704 2.11703 2.25356 1.98877 2.11703 2.117 2.25353 2.11703 2.25356 2.25353 2.39888 2.11704 2.25356 2.25356 2.39889 2.25356 2.39887 2.39889 2.55358 2.25356 2.39889 2.39888 2.55359 2.39889 2.55358 2.55359 2.71828 1.28421 1.367 1.367 1.45513 1.367 1.45513 1.45513 1.54894 1.367 1.45513 1.45512 1.54893 1.45513 1.54894 1.54893 1.6488 1.45513 1.54895 1.54894 1.64881 1.54895 1.64882 1.64881 1.75511 1.54894 1.64881 1.6488 1.7551 1.64881 1.75511 1.7551 1.86826 1.45512 1.54893 1.54893 1.64879 1.54893 1.6488 1.64879 1.75509 1.54893 1.64879 1.64879 1.75509 1.64879 1.75509 1.75509 1.86824 1.6488 1.7551 1.75509 1.86825 1.7551 1.86826 1.86825 1.98871 1.75509 1.86825 1.86824 1.98869 1.86825 1.98871 1.98869 2.11692 1.28421 1.367 1.367 1.45513 1.367 1.45512 1.45513 1.54893 1.367 1.45513 1.45513 1.54894 1.45513 1.54893 1.54894 1.6488 1.45512 1.54893 1.54893 1.64879 1.54893 1.64879 1.64879 1.75509 1.54893 1.64879 1.6488 1.75509 1.64879 1.75509 1.75509 1.86824 1.45513 1.54894 1.54895 1.64881 1.54894 1.6488 1.64881 1.7551 1.54895 1.64881 1.64882 1.75511 1.64881 1.7551 1.75511 1.86826 1.6488 1.75509 1.7551 1.86825 1.75509 1.86824 1.86825 1.98869 1.7551 1.86825 1.86826 1.98871 1.86825 1.98869 1.98871 2.11692 1.64879 1.75509 1.75509 1.86824 1.75509 1.86824 1.86824 1.98869 1.75509 1.86824 1.86824 1.98869 1.86824 1.98869 1.98869 2.1169 1.86824 1.98869 1.98869 2.11691 1.98869 2.11692 2.11691 2.2534 1.98869 2.11691 2.1169 2.25339 2.11691 2.2534 2.25339 2.39867 1.86824 1.98869 1.98869 2.11691 1.98869 2.1169 2.11691 2.25339 1.98869 2.11691 2.11692 2.2534 2.11691 2.25339 2.2534 2.39867 2.1169 2.25339 2.25339 2.39867 2.25339 2.39867 2.39867 2.55335 2.25339 2.39867 2.39867 2.55335 2.39867 2.55335 2.55335 2.71788 1.64882 1.75513 1.75511 1.86828 1.75513 1.8683 1.86828 1.98874 1.75511 1.86828 1.86826 1.98872 1.86828 1.98874 1.98872 2.11696 1.8683 1.98877 1.98874 2.11698 1.98877 2.11701 2.11698 2.2535 1.98874 2.11698 2.11696 2.25346 2.11698 2.2535 2.25346 2.39878 1.86826 1.98872 1.98871 2.11693 1.98872 2.11696 2.11693 2.25343 1.98871 2.11693 2.11692 2.25341 2.11693 2.25343 2.25341 2.39871 2.11696 2.25346 2.25343 2.39874 2.25346 2.39878 2.39874 2.55342 2.25343 2.39874 2.39871 2.55337 2.39874 2.55342 2.55337 2.71805 2.11701 2.25353 2.2535 2.39882 2.25353 2.39887 2.39882 2.55354 2.2535 2.39882 2.39878 2.55349 2.39882 2.55354 2.55349 2.71814 2.39887 2.55358 2.55354 2.71824 2.55358 2.71828 2.71824 2.8936 2.55354 2.71824 2.71814 2.89349 2.71824 2.8936 2.89349 3.08022 2.39878 2.55349 2.55342 2.71811 2.55349 2.71814 2.71811 2.89346 2.55342 2.71811 2.71805 2.89322 2.71811 2.89346 2.89322 3.0801 2.89349 3.08022 3.08016 3.27887 3.08016 3.27887 3.27866 3.49034 2.11692 2.25341 2.2534 2.39869 2.25341 2.39871 2.39869 2.55335 2.2534 2.39869 2.39867 2.55334 2.39869 2.55335 2.55334 2.718 2.39871 2.55337 2.55335 2.71801 2.55337 2.71805 2.71801 2.89317 2.55335 2.71801 2.718 2.89316 2.71801 2.89317 2.89316 3.08005 2.39867 2.55334 2.55335 2.71789 2.55334 2.718 2.71789 2.89328 2.55335 2.71789 2.71788 2.89347 1.64882 1.75511 1.75513 1.86828 1.75511 1.86826 1.86828 1.98872 1.75513 1.86828 1.8683 1.98874 1.86828 1.98872 1.98874 2.11696 1.86826 1.98871 1.98872 2.11693 1.98871 2.11692 2.11693 2.25341 1.98872 2.11693 2.11696 2.25343 2.11693 2.25341 2.25343 2.39871 1.8683 1.98874 1.98877 2.11698 1.98874 2.11696 2.11698 2.25346 1.98877 2.11698 2.11701 2.2535 2.11698 2.25346 2.2535 2.39878 2.11696 2.25343 2.25346 2.39874 2.25343 2.39871 2.39874 2.55337 2.25346 2.39874 2.39878 2.55342 2.39874 2.55337 2.55342 2.71805 2.11692 2.2534 2.25341 2.39869 2.2534 2.39867 2.39869 2.55334 2.25341 2.39869 2.39871 2.55335 2.39869 2.55334 2.55335 2.718 2.39867 2.55335 2.55334 2.71789 2.55335 2.71788 2.71789 2.89347 2.55334 2.71789 2.718 2.89328 2.39871 2.55335 2.55337 2.71801 2.55335 2.718 2.71801 2.89316 2.55337 2.71801 2.71805 2.89317 2.71801 2.89316 2.89317 3.08005 2.11701 2.2535 2.25353 2.39882 2.2535 2.39878 2.39882 2.55349 2.25353 2.39882 2.39887 2.55354 2.39882 2.55349 2.55354 2.71814 2.39878 2.55342 2.55349 2.71811 2.55342 2.71805 2.71811 2.89322 2.55349 2.71811 2.71814 2.89346 2.71811 2.89322 2.89346 3.0801 2.39887 2.55354 2.55358 2.71824 2.55354 2.71814 2.71824 2.89349 2.55358 2.71824 2.71828 2.8936 2.71824 2.89349 2.8936 3.08022 2.89349 3.08016 3.08022 3.27887 3.08016 3.27866 3.27887 3.49034 1.28422 1.36702 1.36701 1.45514 1.36702 1.45515 1.45514 1.54896 1.36701 1.45514 1.45513 1.54895 1.45514 1.54896 1.54895 1.64882 1.28422 1.36701 1.36702 1.45514 1.36701 1.45513 1.45514 1.54895 1.36702 1.45514 1.45515 1.54896 1.45514 1.54895 1.54896 1.64882 1.28421 1.36699 1.36699 1.45512 1.36699 1.45512 1.45512 1.54893 1.36699 1.45512 1.45512 1.54893 1.45512 1.54893 1.54893 1.64879 1.0003 1.06478 1.06477 1.13341 1.06478 1.13341 1.13341 1.20647 1.06477 1.13341 1.1334 1.20647 1.13341 1.20647 1.20647 1.28424 1.13341 1.20646 1.20647 1.28424 1.20646 1.28422 1.28424 1.36702 1.20647 1.28424 1.28424 1.36703 1.28424 1.36702 1.36703 1.45515 1.1334 1.20647 1.20646 1.28424 1.20647 1.28424 1.28424 1.36703 1.20646 1.28424 1.28424 1.36703 1.28424 1.36703 1.36703 1.45516 1.0003 1.06477 1.06478 1.13341 1.06477 1.1334 1.13341 1.20647 1.06478 1.13341 1.13341 1.20647 1.13341 1.20647 1.20647 1.28424 1.1334 1.20646 1.20647 1.28424 1.20646 1.28424 1.28424 1.36703 1.20647 1.28424 1.28424 1.36703 1.28424 1.36703 1.36703 1.45516 1.13341 1.20647 1.20646 1.28424 1.20647 1.28424 1.28424 1.36703 1.20646 1.28424 1.28422 1.36702 1.28424 1.36703 1.36702 1.45515 0.68686 0.732757 0.732755 0.779122 0.732757 0.778654 0.779122 0.829387 0.732755 0.779122 0.778651 0.829385 0.779122 0.829387 0.829385 0.882791 0.68686 0.732755 0.732757 0.779122 0.732755 0.778651 0.779122 0.829385 0.732757 0.779122 0.778654 0.829387 0.779122 0.829385 0.829387 0.882791 0.778651 0.829385 0.829385 0.882742 0.829385 0.882791 0.882742 0.939689 0.829385 0.882742 0.882791 0.939689 0.882742 0.939689 0.939689 1.00025 0.68695 0.732848 0.73283 0.779198 0.732848 0.778745 0.779198 0.829465 0.73283 0.779198 0.77871 0.829448 0.779198 0.829465 0.829448 0.882854 0.686906 0.732808 0.732794 0.779165 0.732808 0.77871 0.779165 0.829433 0.732794 0.779165 0.778682 0.82942 0.779165 0.829433 0.82942 0.882829 0.77871 0.829448 0.829433 0.882793 0.829448 0.882854 0.882793 0.939741 0.829433 0.882793 0.882829 0.939731 0.882793 0.939741 0.939731 1.0003 0.778801 0.829029 0.830526 0.882875 0.829029 0.882497 0.882875 0.941062 0.830526 0.882875 0.882252 0.939899 0.882875 0.941062 0.939899 0.999627 0.882252 0.939899 0.939811 1.00018 0.939899 0.999627 1.00018 1.06489 0.939811 1.00018 1.00031 1.06477 1.00018 1.06489 1.06477 1.13337 0.999627 1.06639 1.06489 1.13344 1.06639 1.13315 1.13344 1.20623 1.06489 1.13344 1.13337 1.20638 1.13344 1.20623 1.20638 1.28403 0.778745 0.829496 0.829465 0.882825 0.829496 0.8829 0.882825 0.939769 0.829465 0.882825 0.882854 0.939753 0.882825 0.939769 0.939753 1.00031 0.8829 0.939791 0.939769 1.00032 0.939791 1.00031 1.00032 1.06478 0.939769 1.00032 1.00031 1.06478 1.00032 1.06478 1.06478 1.1334 0.882854 0.939753 0.939741 1.00031 0.939753 1.00031 1.00031 1.06478 0.939741 1.00031 1.0003 1.06478 1.00031 1.06478 1.06478 1.13341 1.00031 1.06478 1.06478 1.13341 1.06478 1.1334 1.13341 1.20645 1.06478 1.13341 1.13341 1.20646 1.13341 1.20645 1.20646 1.28422 1.00031 1.06477 1.06478 1.13338 1.06477 1.13337 1.13338 1.20641 1.06478 1.13338 1.1334 1.20643 1.13338 1.20641 1.20643 1.28417 1.13337 1.20638 1.20641 1.28412 1.20638 1.28403 1.28412 1.36684 1.20641 1.28412 1.28417 1.36692 1.28412 1.36684 1.36692 1.45499 1.1334 1.20643 1.20645 1.2842 1.20643 1.28417 1.2842 1.36696 1.20645 1.2842 1.28422 1.367 1.2842 1.36696 1.367 1.4551 1.28417 1.36692 1.36696 1.45506 1.36692 1.45499 1.45506 1.54883 1.36696 1.45506 1.4551 1.54889 1.45506 1.54883 1.54889 1.64872 0.686881 0.732782 0.732773 0.779142 0.732782 0.778682 0.779142 0.82941 0.732773 0.779142 0.778664 0.829402 0.779142 0.82941 0.829402 0.88281 0.686866 0.732765 0.73276 0.779128 0.732765 0.778664 0.779128 0.829395 0.73276 0.779128 0.778654 0.82939 0.779128 0.829395 0.82939 0.882797 0.778664 0.829402 0.829395 0.882756 0.829402 0.88281 0.882756 0.939706 0.829395 0.882756 0.882797 0.9397 0.882756 0.939706 0.9397 1.00027 0.778682 0.82942 0.82941 0.882771 0.82942 0.882829 0.882771 0.939722 0.82941 0.882771 0.88281 0.939713 0.882771 0.939722 0.939713 1.00028 0.882829 0.939731 0.939722 1.00029 0.939731 1.0003 1.00029 1.06477 0.939722 1.00029 1.00028 1.06477 1.00029 1.06477 1.06477 1.1334 0.88281 0.939713 0.939706 1.00028 0.939713 1.00028 1.00028 1.06476 0.939706 1.00028 1.00027 1.06475 1.00028 1.06476 1.06475 1.13339 1.00028 1.06477 1.06476 1.1334 1.06477 1.1334 1.1334 1.20646 1.06476 1.1334 1.13339 1.20646 1.1334 1.20646 1.20646 1.28424 0.778654 0.82939 0.829387 0.882746 0.82939 0.882797 0.882746 0.939695 0.829387 0.882746 0.882791 0.939691 0.882746 0.939695 0.939691 1.00026 0.882797 0.9397 0.939695 1.00027 0.9397 1.00027 1.00027 1.06475 0.939695 1.00027 1.00026 1.06474 1.00027 1.06475 1.06474 1.13338 0.882791 0.939691 0.939689 1.00026 0.939691 1.00026 1.00026 1.06474 0.939689 1.00026 1.00025 1.06474 1.00026 1.06474 1.06474 1.13337 1.00026 1.06474 1.06474 1.13337 1.06474 1.13338 1.13337 1.20644 1.06474 1.13337 1.13337 1.20644 1.13337 1.20644 1.20644 1.28421 1.00027 1.06475 1.06475 1.13339 1.06475 1.13339 1.13339 1.20645 1.06475 1.13339 1.13338 1.20645 1.13339 1.20645 1.20645 1.28422 1.13339 1.20646 1.20645 1.28423 1.20646 1.28424 1.28423 1.36702 1.20645 1.28423 1.28422 1.36702 1.28423 1.36702 1.36702 1.45515 1.13338 1.20645 1.20644 1.28422 1.20645 1.28422 1.28422 1.36701 1.20644 1.28422 1.28421 1.367 1.28422 1.36701 1.367 1.45513 0.686906 0.732794 0.732808 0.779165 0.732794 0.778682 0.779165 0.82942 0.732808 0.779165 0.77871 0.829433 0.779165 0.82942 0.829433 0.882829 0.68695 0.73283 0.732848 0.779198 0.73283 0.77871 0.779198 0.829448 0.732848 0.779198 0.778745 0.829465 0.779198 0.829448 0.829465 0.882854 0.77871 0.829433 0.829448 0.882793 0.829433 0.882829 0.882793 0.939731 0.829448 0.882793 0.882854 0.939741 0.882793 0.939731 0.939741 1.0003 0.686866 0.73276 0.732765 0.779128 0.73276 0.778654 0.779128 0.82939 0.732765 0.779128 0.778664 0.829395 0.779128 0.82939 0.829395 0.882797 0.686881 0.732773 0.732782 0.779142 0.732773 0.778664 0.779142 0.829402 0.732782 0.779142 0.778682 0.82941 0.779142 0.829402 0.82941 0.88281 0.778664 0.829395 0.829402 0.882756 0.829395 0.882797 0.882756 0.9397 0.829402 0.882756 0.88281 0.939706 0.882756 0.9397 0.939706 1.00027 0.778654 0.829387 0.82939 0.882746 0.829387 0.882791 0.882746 0.939691 0.82939 0.882746 0.882797 0.939695 0.882746 0.939691 0.939695 1.00026 0.882791 0.939689 0.939691 1.00026 0.939689 1.00025 1.00026 1.06474 0.939691 1.00026 1.00026 1.06474 1.00026 1.06474 1.06474 1.13337 0.882797 0.939695 0.9397 1.00027 0.939695 1.00026 1.00027 1.06474 0.9397 1.00027 1.00027 1.06475 1.00027 1.06474 1.06475 1.13338 1.00026 1.06474 1.06474 1.13337 1.06474 1.13337 1.13337 1.20644 1.06474 1.13337 1.13338 1.20644 1.13337 1.20644 1.20644 1.28421 0.778682 0.82941 0.82942 0.882771 0.82941 0.88281 0.882771 0.939713 0.82942 0.882771 0.882829 0.939722 0.882771 0.939713 0.939722 1.00028 0.88281 0.939706 0.939713 1.00028 0.939706 1.00027 1.00028 1.06475 0.939713 1.00028 1.00028 1.06476 1.00028 1.06475 1.06476 1.13339 0.882829 0.939722 0.939731 1.00029 0.939722 1.00028 1.00029 1.06477 0.939731 1.00029 1.0003 1.06477 1.00029 1.06477 1.06477 1.1334 1.00028 1.06476 1.06477 1.1334 1.06476 1.13339 1.1334 1.20646 1.06477 1.1334 1.1334 1.20646 1.1334 1.20646 1.20646 1.28424 1.00027 1.06475 1.06475 1.13339 1.06475 1.13338 1.13339 1.20645 1.06475 1.13339 1.13339 1.20645 1.13339 1.20645 1.20645 1.28422 1.13338 1.20644 1.20645 1.28422 1.20644 1.28421 1.28422 1.367 1.20645 1.28422 1.28422 1.36701 1.28422 1.367 1.36701 1.45513 1.13339 1.20645 1.20646 1.28423 1.20645 1.28422 1.28423 1.36702 1.20646 1.28423 1.28424 1.36702 1.28423 1.36702 1.36702 1.45515 0.778745 0.829465 0.829496 0.882825 0.829465 0.882854 0.882825 0.939753 0.829496 0.882825 0.8829 0.939769 0.882825 0.939753 0.939769 1.00031 0.882854 0.939741 0.939753 1.00031 0.939741 1.0003 1.00031 1.06478 0.939753 1.00031 1.00031 1.06478 1.00031 1.06478 1.06478 1.13341 0.8829 0.939769 0.939791 1.00032 0.939769 1.00031 1.00032 1.06478 0.939791 1.00032 1.00031 1.06478 1.00032 1.06478 1.06478 1.1334 1.00031 1.06478 1.06478 1.13341 1.06478 1.13341 1.13341 1.20646 1.06478 1.13341 1.1334 1.20645 1.13341 1.20646 1.20645 1.28422 0.778801 0.830526 0.829029 0.882875 0.830526 0.882252 0.882875 0.939899 0.829029 0.882875 0.882497 0.941062 0.882875 0.939899 0.941062 0.999627 0.882252 0.939811 0.939899 1.00018 0.939811 1.00031 1.00018 1.06477 0.939899 1.00018 0.999627 1.06489 1.00018 1.06477 1.06489 1.13337 0.999627 1.06489 1.06639 1.13344 1.06489 1.13337 1.13344 1.20638 1.06639 1.13344 1.13315 1.20623 1.13344 1.20638 1.20623 1.28403 1.00031 1.06478 1.06477 1.13338 1.06478 1.1334 1.13338 1.20643 1.06477 1.13338 1.13337 1.20641 1.13338 1.20643 1.20641 1.28417 1.1334 1.20645 1.20643 1.2842 1.20645 1.28422 1.2842 1.367 1.20643 1.2842 1.28417 1.36696 1.2842 1.367 1.36696 1.4551 1.13337 1.20641 1.20638 1.28412 1.20641 1.28417 1.28412 1.36692 1.20638 1.28412 1.28403 1.36684 1.28412 1.36692 1.36684 1.45499 1.28417 1.36696 1.36692 1.45506 1.36696 1.4551 1.45506 1.54889 1.36692 1.45506 1.45499 1.54883 1.45506 1.54889 1.54883 1.64872 1.00025 1.06474 1.06474 1.13337 1.06474 1.13337 1.13337 1.20643 1.06474 1.13337 1.13337 1.20643 1.13337 1.20643 1.20643 1.28421 1.13337 1.20644 1.20643 1.28421 1.20644 1.28421 1.28421 1.367 1.20643 1.28421 1.28