# vtk DataFile Version 3.0
#This file was generated by the deal.II library on 2020/3/19 at 13:55:07
ASCII
DATASET UNSTRUCTURED_GRID

POINTS 16708 double
-0.75 -1 0
-0.625 -1 0
-0.75 -0.875 0
-0.625 -0.875 0
-1 -0.75 0
-0.875 -0.75 0
-1 -0.625 0
-0.875 -0.625 0
-1 -1 0
-0.875 -1 0
-1 -0.875 0
-0.875 -0.875 0
-0.875 -1 0
-0.75 -1 0
-0.875 -0.875 0
-0.75 -0.875 0
-1 -0.875 0
-0.875 -0.875 0
-1 -0.75 0
-0.875 -0.75 0
-0.125 -0.25 0
-0.0625 -0.25 0
-0.125 -0.1875 0
-0.0625 -0.1875 0
-0.25 -0.125 0
-0.1875 -0.125 0
-0.25 -0.0625 0
-0.1875 -0.0625 0
0.375 -0.75 0
0.4375 -0.75 0
0.375 -0.6875 0
0.4375 -0.6875 0
0.25 -0.625 0
0.3125 -0.625 0
0.25 -0.5625 0
0.3125 -0.5625 0
0.75 -1 0
0.8125 -1 0
0.75 -0.9375 0
0.8125 -0.9375 0
0.125 -0.5 0
0.1875 -0.5 0
0.125 -0.4375 0
0.1875 -0.4375 0
0 -0.375 0
0.0625 -0.375 0
0 -0.3125 0
0.0625 -0.3125 0
-0.625 0.25 0
-0.5625 0.25 0
-0.625 0.3125 0
-0.5625 0.3125 0
-0.75 0.375 0
-0.6875 0.375 0
-0.75 0.4375 0
-0.6875 0.4375 0
-0.375 0 0
-0.3125 0 0
-0.375 0.0625 0
-0.3125 0.0625 0
-0.5 0.125 0
-0.4375 0.125 0
-0.5 0.1875 0
-0.4375 0.1875 0
-1 0.75 0
-0.9375 0.75 0
-1 0.8125 0
-0.9375 0.8125 0
0.5 -0.875 0
0.5625 -0.875 0
0.5 -0.8125 0
0.5625 -0.8125 0
-0.875 0.5 0
-0.8125 0.5 0
-0.875 0.5625 0
-0.8125 0.5625 0
-0.25 -0.25 0
-0.1875 -0.25 0
-0.25 -0.1875 0
-0.1875 -0.1875 0
-0.1875 -0.25 0
-0.125 -0.25 0
-0.1875 -0.1875 0
-0.125 -0.1875 0
-0.25 -0.1875 0
-0.1875 -0.1875 0
-0.25 -0.125 0
-0.1875 -0.125 0
-0.1875 -0.1875 0
-0.125 -0.1875 0
-0.1875 -0.125 0
-0.125 -0.125 0
0.25 -0.75 0
0.3125 -0.75 0
0.25 -0.6875 0
0.3125 -0.6875 0
0.3125 -0.75 0
0.375 -0.75 0
0.3125 -0.6875 0
0.375 -0.6875 0
0.25 -0.6875 0
0.3125 -0.6875 0
0.25 -0.625 0
0.3125 -0.625 0
0.3125 -0.6875 0
0.375 -0.6875 0
0.3125 -0.625 0
0.375 -0.625 0
0.9375 -1 0
1 -1 0
0.9375 -0.9375 0
1 -0.9375 0
0 -0.5 0
0.0625 -0.5 0
0 -0.4375 0
0.0625 -0.4375 0
0.0625 -0.5 0
0.125 -0.5 0
0.0625 -0.4375 0
0.125 -0.4375 0
0 -0.4375 0
0.0625 -0.4375 0
0 -0.375 0
0.0625 -0.375 0
0.0625 -0.4375 0
0.125 -0.4375 0
0.0625 -0.375 0
0.125 -0.375 0
-0.75 0.25 0
-0.6875 0.25 0
-0.75 0.3125 0
-0.6875 0.3125 0
-0.6875 0.25 0
-0.625 0.25 0
-0.6875 0.3125 0
-0.625 0.3125 0
-0.75 0.3125 0
-0.6875 0.3125 0
-0.75 0.375 0
-0.6875 0.375 0
-0.6875 0.3125 0
-0.625 0.3125 0
-0.6875 0.375 0
-0.625 0.375 0
-0.5 0 0
-0.4375 0 0
-0.5 0.0625 0
-0.4375 0.0625 0
-0.4375 0 0
-0.375 0 0
-0.4375 0.0625 0
-0.375 0.0625 0
-0.5 0.0625 0
-0.4375 0.0625 0
-0.5 0.125 0
-0.4375 0.125 0
-0.4375 0.0625 0
-0.375 0.0625 0
-0.4375 0.125 0
-0.375 0.125 0
-1 0.9375 0
-0.9375 0.9375 0
-1 1 0
-0.9375 1 0
-0.25 -0.875 0
-0.1875 -0.875 0
-0.25 -0.8125 0
-0.1875 -0.8125 0
-0.1875 -0.875 0
-0.125 -0.875 0
-0.1875 -0.8125 0
-0.125 -0.8125 0
-0.25 -0.8125 0
-0.1875 -0.8125 0
-0.25 -0.75 0
-0.1875 -0.75 0
-0.1875 -0.8125 0
-0.125 -0.8125 0
-0.1875 -0.75 0
-0.125 -0.75 0
-0.125 -0.875 0
-0.0625 -0.875 0
-0.125 -0.8125 0
-0.0625 -0.8125 0
-0.0625 -0.875 0
0 -0.875 0
-0.0625 -0.8125 0
0 -0.8125 0
-0.125 -0.8125 0
-0.0625 -0.8125 0
-0.125 -0.75 0
-0.0625 -0.75 0
-0.0625 -0.8125 0
0 -0.8125 0
-0.0625 -0.75 0
0 -0.75 0
-0.375 -0.75 0
-0.3125 -0.75 0
-0.375 -0.6875 0
-0.3125 -0.6875 0
-0.3125 -0.75 0
-0.25 -0.75 0
-0.3125 -0.6875 0
-0.25 -0.6875 0
-0.375 -0.6875 0
-0.3125 -0.6875 0
-0.375 -0.625 0
-0.3125 -0.625 0
-0.3125 -0.6875 0
-0.25 -0.6875 0
-0.3125 -0.625 0
-0.25 -0.625 0
-0.5 -0.625 0
-0.4375 -0.625 0
-0.5 -0.5625 0
-0.4375 -0.5625 0
-0.4375 -0.625 0
-0.375 -0.625 0
-0.4375 -0.5625 0
-0.375 -0.5625 0
-0.5 -0.5625 0
-0.4375 -0.5625 0
-0.5 -0.5 0
-0.4375 -0.5 0
-0.4375 -0.5625 0
-0.375 -0.5625 0
-0.4375 -0.5 0
-0.375 -0.5 0
-0.375 -0.625 0
-0.3125 -0.625 0
-0.375 -0.5625 0
-0.3125 -0.5625 0
-0.3125 -0.625 0
-0.25 -0.625 0
-0.3125 -0.5625 0
-0.25 -0.5625 0
-0.375 -0.5625 0
-0.3125 -0.5625 0
-0.375 -0.5 0
-0.3125 -0.5 0
-0.3125 -0.5625 0
-0.25 -0.5625 0
-0.3125 -0.5 0
-0.25 -0.5 0
-0.25 -0.75 0
-0.1875 -0.75 0
-0.25 -0.6875 0
-0.1875 -0.6875 0
-0.1875 -0.75 0
-0.125 -0.75 0
-0.1875 -0.6875 0
-0.125 -0.6875 0
-0.25 -0.6875 0
-0.1875 -0.6875 0
-0.25 -0.625 0
-0.1875 -0.625 0
-0.1875 -0.6875 0
-0.125 -0.6875 0
-0.1875 -0.625 0
-0.125 -0.625 0
-0.125 -0.75 0
-0.0625 -0.75 0
-0.125 -0.6875 0
-0.0625 -0.6875 0
-0.0625 -0.75 0
0 -0.75 0
-0.0625 -0.6875 0
0 -0.6875 0
-0.125 -0.6875 0
-0.0625 -0.6875 0
-0.125 -0.625 0
-0.0625 -0.625 0
-0.0625 -0.6875 0
0 -0.6875 0
-0.0625 -0.625 0
0 -0.625 0
-0.25 -0.625 0
-0.1875 -0.625 0
-0.25 -0.5625 0
-0.1875 -0.5625 0
-0.1875 -0.625 0
-0.125 -0.625 0
-0.1875 -0.5625 0
-0.125 -0.5625 0
-0.25 -0.5625 0
-0.1875 -0.5625 0
-0.25 -0.5 0
-0.1875 -0.5 0
-0.1875 -0.5625 0
-0.125 -0.5625 0
-0.1875 -0.5 0
-0.125 -0.5 0
-0.125 -0.625 0
-0.0625 -0.625 0
-0.125 -0.5625 0
-0.0625 -0.5625 0
-0.0625 -0.625 0
0 -0.625 0
-0.0625 -0.5625 0
0 -0.5625 0
-0.125 -0.5625 0
-0.0625 -0.5625 0
-0.125 -0.5 0
-0.0625 -0.5 0
-0.0625 -0.5625 0
0 -0.5625 0
-0.0625 -0.5 0
0 -0.5 0
-0.625 -0.5 0
-0.5625 -0.5 0
-0.625 -0.4375 0
-0.5625 -0.4375 0
-0.5625 -0.5 0
-0.5 -0.5 0
-0.5625 -0.4375 0
-0.5 -0.4375 0
-0.625 -0.4375 0
-0.5625 -0.4375 0
-0.625 -0.375 0
-0.5625 -0.375 0
-0.5625 -0.4375 0
-0.5 -0.4375 0
-0.5625 -0.375 0
-0.5 -0.375 0
-0.75 -0.375 0
-0.6875 -0.375 0
-0.75 -0.3125 0
-0.6875 -0.3125 0
-0.6875 -0.375 0
-0.625 -0.375 0
-0.6875 -0.3125 0
-0.625 -0.3125 0
-0.75 -0.3125 0
-0.6875 -0.3125 0
-0.75 -0.25 0
-0.6875 -0.25 0
-0.6875 -0.3125 0
-0.625 -0.3125 0
-0.6875 -0.25 0
-0.625 -0.25 0
-0.625 -0.375 0
-0.5625 -0.375 0
-0.625 -0.3125 0
-0.5625 -0.3125 0
-0.5625 -0.375 0
-0.5 -0.375 0
-0.5625 -0.3125 0
-0.5 -0.3125 0
-0.625 -0.3125 0
-0.5625 -0.3125 0
-0.625 -0.25 0
-0.5625 -0.25 0
-0.5625 -0.3125 0
-0.5 -0.3125 0
-0.5625 -0.25 0
-0.5 -0.25 0
-0.875 -0.25 0
-0.8125 -0.25 0
-0.875 -0.1875 0
-0.8125 -0.1875 0
-0.8125 -0.25 0
-0.75 -0.25 0
-0.8125 -0.1875 0
-0.75 -0.1875 0
-0.875 -0.1875 0
-0.8125 -0.1875 0
-0.875 -0.125 0
-0.8125 -0.125 0
-0.8125 -0.1875 0
-0.75 -0.1875 0
-0.8125 -0.125 0
-0.75 -0.125 0
-0.875 -0.125 0
-0.8125 -0.125 0
-0.875 -0.0625 0
-0.8125 -0.0625 0
-0.8125 -0.125 0
-0.75 -0.125 0
-0.8125 -0.0625 0
-0.75 -0.0625 0
-0.875 -0.0625 0
-0.8125 -0.0625 0
-0.875 0 0
-0.8125 0 0
-0.8125 -0.0625 0
-0.75 -0.0625 0
-0.8125 0 0
-0.75 0 0
-0.75 -0.25 0
-0.6875 -0.25 0
-0.75 -0.1875 0
-0.6875 -0.1875 0
-0.6875 -0.25 0
-0.625 -0.25 0
-0.6875 -0.1875 0
-0.625 -0.1875 0
-0.75 -0.1875 0
-0.6875 -0.1875 0
-0.75 -0.125 0
-0.6875 -0.125 0
-0.6875 -0.1875 0
-0.625 -0.1875 0
-0.6875 -0.125 0
-0.625 -0.125 0
-0.625 -0.25 0
-0.5625 -0.25 0
-0.625 -0.1875 0
-0.5625 -0.1875 0
-0.5625 -0.25 0
-0.5 -0.25 0
-0.5625 -0.1875 0
-0.5 -0.1875 0
-0.625 -0.1875 0
-0.5625 -0.1875 0
-0.625 -0.125 0
-0.5625 -0.125 0
-0.5625 -0.1875 0
-0.5 -0.1875 0
-0.5625 -0.125 0
-0.5 -0.125 0
-0.75 -0.125 0
-0.6875 -0.125 0
-0.75 -0.0625 0
-0.6875 -0.0625 0
-0.6875 -0.125 0
-0.625 -0.125 0
-0.6875 -0.0625 0
-0.625 -0.0625 0
-0.75 -0.0625 0
-0.6875 -0.0625 0
-0.75 0 0
-0.6875 0 0
-0.6875 -0.0625 0
-0.625 -0.0625 0
-0.6875 0 0
-0.625 0 0
-0.625 -0.125 0
-0.5625 -0.125 0
-0.625 -0.0625 0
-0.5625 -0.0625 0
-0.5625 -0.125 0
-0.5 -0.125 0
-0.5625 -0.0625 0
-0.5 -0.0625 0
-0.625 -0.0625 0
-0.5625 -0.0625 0
-0.625 0 0
-0.5625 0 0
-0.5625 -0.0625 0
-0.5 -0.0625 0
-0.5625 0 0
-0.5 0 0
-0.5 -0.5 0
-0.4375 -0.5 0
-0.5 -0.4375 0
-0.4375 -0.4375 0
-0.4375 -0.5 0
-0.375 -0.5 0
-0.4375 -0.4375 0
-0.375 -0.4375 0
-0.5 -0.4375 0
-0.4375 -0.4375 0
-0.5 -0.375 0
-0.4375 -0.375 0
-0.4375 -0.4375 0
-0.375 -0.4375 0
-0.4375 -0.375 0
-0.375 -0.375 0
-0.375 -0.5 0
-0.3125 -0.5 0
-0.375 -0.4375 0
-0.3125 -0.4375 0
-0.3125 -0.5 0
-0.25 -0.5 0
-0.3125 -0.4375 0
-0.25 -0.4375 0
-0.375 -0.4375 0
-0.3125 -0.4375 0
-0.375 -0.375 0
-0.3125 -0.375 0
-0.3125 -0.4375 0
-0.25 -0.4375 0
-0.3125 -0.375 0
-0.25 -0.375 0
-0.5 -0.375 0
-0.4375 -0.375 0
-0.5 -0.3125 0
-0.4375 -0.3125 0
-0.4375 -0.375 0
-0.375 -0.375 0
-0.4375 -0.3125 0
-0.375 -0.3125 0
-0.5 -0.3125 0
-0.4375 -0.3125 0
-0.5 -0.25 0
-0.4375 -0.25 0
-0.4375 -0.3125 0
-0.375 -0.3125 0
-0.4375 -0.25 0
-0.375 -0.25 0
-0.375 -0.375 0
-0.3125 -0.375 0
-0.375 -0.3125 0
-0.3125 -0.3125 0
-0.3125 -0.375 0
-0.25 -0.375 0
-0.3125 -0.3125 0
-0.25 -0.3125 0
-0.375 -0.3125 0
-0.3125 -0.3125 0
-0.375 -0.25 0
-0.3125 -0.25 0
-0.3125 -0.3125 0
-0.25 -0.3125 0
-0.3125 -0.25 0
-0.25 -0.25 0
-0.25 -0.5 0
-0.1875 -0.5 0
-0.25 -0.4375 0
-0.1875 -0.4375 0
-0.1875 -0.5 0
-0.125 -0.5 0
-0.1875 -0.4375 0
-0.125 -0.4375 0
-0.25 -0.4375 0
-0.1875 -0.4375 0
-0.25 -0.375 0
-0.1875 -0.375 0
-0.1875 -0.4375 0
-0.125 -0.4375 0
-0.1875 -0.375 0
-0.125 -0.375 0
-0.125 -0.5 0
-0.0625 -0.5 0
-0.125 -0.4375 0
-0.0625 -0.4375 0
-0.0625 -0.5 0
0 -0.5 0
-0.0625 -0.4375 0
0 -0.4375 0
-0.125 -0.4375 0
-0.0625 -0.4375 0
-0.125 -0.375 0
-0.0625 -0.375 0
-0.0625 -0.4375 0
0 -0.4375 0
-0.0625 -0.375 0
0 -0.375 0
-0.25 -0.375 0
-0.1875 -0.375 0
-0.25 -0.3125 0
-0.1875 -0.3125 0
-0.1875 -0.375 0
-0.125 -0.375 0
-0.1875 -0.3125 0
-0.125 -0.3125 0
-0.25 -0.3125 0
-0.1875 -0.3125 0
-0.25 -0.25 0
-0.1875 -0.25 0
-0.1875 -0.3125 0
-0.125 -0.3125 0
-0.1875 -0.25 0
-0.125 -0.25 0
-0.125 -0.375 0
-0.0625 -0.375 0
-0.125 -0.3125 0
-0.0625 -0.3125 0
-0.0625 -0.375 0
0 -0.375 0
-0.0625 -0.3125 0
0 -0.3125 0
-0.125 -0.3125 0
-0.0625 -0.3125 0
-0.125 -0.25 0
-0.0625 -0.25 0
-0.0625 -0.3125 0
0 -0.3125 0
-0.0625 -0.25 0
0 -0.25 0
-0.5 -0.25 0
-0.4375 -0.25 0
-0.5 -0.1875 0
-0.4375 -0.1875 0
-0.4375 -0.25 0
-0.375 -0.25 0
-0.4375 -0.1875 0
-0.375 -0.1875 0
-0.5 -0.1875 0
-0.4375 -0.1875 0
-0.5 -0.125 0
-0.4375 -0.125 0
-0.4375 -0.1875 0
-0.375 -0.1875 0
-0.4375 -0.125 0
-0.375 -0.125 0
-0.375 -0.25 0
-0.3125 -0.25 0
-0.375 -0.1875 0
-0.3125 -0.1875 0
-0.3125 -0.25 0
-0.25 -0.25 0
-0.3125 -0.1875 0
-0.25 -0.1875 0
-0.375 -0.1875 0
-0.3125 -0.1875 0
-0.375 -0.125 0
-0.3125 -0.125 0
-0.3125 -0.1875 0
-0.25 -0.1875 0
-0.3125 -0.125 0
-0.25 -0.125 0
-0.5 -0.125 0
-0.4375 -0.125 0
-0.5 -0.0625 0
-0.4375 -0.0625 0
-0.4375 -0.125 0
-0.375 -0.125 0
-0.4375 -0.0625 0
-0.375 -0.0625 0
-0.5 -0.0625 0
-0.4375 -0.0625 0
-0.5 0 0
-0.4375 0 0
-0.4375 -0.0625 0
-0.375 -0.0625 0
[...]
POINT_DATA 16708
SCALARS solution double 1
LOOKUP_TABLE default
0.173774 0.196912 0.196861 0.223045 0.173774 0.196861 0.196912 0.223045 0.135335 0.153355 0.153355 0.173721 0.153355 0.173774 0.173721 0.196861 0.153355 0.173721 0.173774 0.196861 0.687214 0.731502 0.731502 0.778767 0.687214 0.731502 0.731502 0.778767 0.687232 0.731522 0.731516 0.778783 0.687222 0.731512 0.731508 0.778775 0.778801 0.829029 0.828973 0.882425 0.687217 0.731506 0.731504 0.77877 0.687215 0.731503 0.731502 0.778768 0.687222 0.731508 0.731512 0.778775 0.687232 0.731516 0.731522 0.778783 0.687215 0.731502 0.731503 0.778768 0.687217 0.731504 0.731506 0.77877 0.778801 0.828973 0.829029 0.882425 0.687251 0.731543 0.731531 0.778797 0.687251 0.731531 0.731543 0.778797 0.606474 0.645579 0.645579 0.687214 0.645579 0.687214 0.687214 0.731502 0.645579 0.687214 0.687214 0.731502 0.687214 0.731502 0.731502 0.778767 0.606486 0.645594 0.645588 0.687226 0.645594 0.687232 0.687226 0.731516 0.645588 0.687226 0.687222 0.731512 0.687226 0.731516 0.731512 0.778778 0.939413 1 0.999891 1.06449 0.606475 0.64558 0.645579 0.687215 0.64558 0.687217 0.687215 0.731504 0.645579 0.687215 0.687215 0.731503 0.687215 0.731504 0.731503 0.778769 0.606486 0.645588 0.645594 0.687226 0.645588 0.687222 0.687226 0.731512 0.645594 0.687226 0.687232 0.731516 0.687226 0.731512 0.731516 0.778778 0.606475 0.645579 0.64558 0.687215 0.645579 0.687215 0.687215 0.731503 0.64558 0.687215 0.687217 0.731504 0.687215 0.731503 0.731504 0.778769 0.939413 0.999891 1 1.06449 0.324656 0.345591 0.345594 0.367878 0.345591 0.367877 0.367878 0.3916 0.345594 0.367878 0.367881 0.391601 0.367878 0.3916 0.391601 0.416852 0.367877 0.3916 0.3916 0.416852 0.3916 0.416854 0.416852 0.443734 0.3916 0.416852 0.416852 0.443732 0.416852 0.443734 0.443732 0.472346 0.324668 0.345599 0.345604 0.367885 0.345599 0.367881 0.367885 0.391604 0.345604 0.367885 0.367888 0.391607 0.367885 0.391604 0.391607 0.416856 0.324679 0.345608 0.345611 0.367891 0.345608 0.367888 0.367891 0.391609 0.345611 0.367891 0.367892 0.391611 0.367891 0.391609 0.391611 0.416859 0.367888 0.391607 0.391609 0.416858 0.391607 0.416856 0.416858 0.443735 0.391609 0.416858 0.416859 0.443736 0.416858 0.443735 0.443736 0.472347 0.367881 0.391601 0.391604 0.416854 0.391601 0.416852 0.416854 0.443732 0.391604 0.416854 0.416856 0.443733 0.416854 0.443732 0.443733 0.472345 0.416852 0.443732 0.443732 0.472345 0.443732 0.472346 0.472345 0.502804 0.443732 0.472345 0.472345 0.502803 0.472345 0.502804 0.502803 0.535225 0.416856 0.443733 0.443735 0.472346 0.443733 0.472345 0.472346 0.502803 0.443735 0.472346 0.472347 0.502803 0.472346 0.502803 0.502803 0.535224 0.472345 0.502803 0.502803 0.535224 0.502803 0.535225 0.535224 0.569737 0.502803 0.535224 0.535224 0.569736 0.535224 0.569737 0.569736 0.606475 0.324679 0.345611 0.345608 0.367891 0.345611 0.367892 0.367891 0.391611 0.345608 0.367891 0.367888 0.391609 0.367891 0.391611 0.391609 0.416859 0.324668 0.345604 0.345599 0.367885 0.345604 0.367888 0.367885 0.391607 0.345599 0.367885 0.367881 0.391604 0.367885 0.391607 0.391604 0.416856 0.367888 0.391609 0.391607 0.416858 0.391609 0.416859 0.416858 0.443736 0.391607 0.416858 0.416856 0.443735 0.416858 0.443736 0.443735 0.472347 0.324656 0.345594 0.345591 0.367878 0.345594 0.367881 0.367878 0.391601 0.345591 0.367878 0.367877 0.3916 0.367878 0.391601 0.3916 0.416852 0.367877 0.3916 0.3916 0.416852 0.3916 0.416852 0.416852 0.443732 0.3916 0.416852 0.416854 0.443734 0.416852 0.443732 0.443734 0.472346 0.367881 0.391604 0.391601 0.416854 0.391604 0.416856 0.416854 0.443733 0.391601 0.416854 0.416852 0.443732 0.416854 0.443733 0.443732 0.472345 0.416856 0.443735 0.443733 0.472346 0.443735 0.472347 0.472346 0.502803 0.443733 0.472346 0.472345 0.502803 0.472346 0.502803 0.502803 0.535224 0.416852 0.443732 0.443732 0.472345 0.443732 0.472345 0.472345 0.502803 0.443732 0.472345 0.472346 0.502804 0.472345 0.502803 0.502804 0.535225 0.472345 0.502803 0.502803 0.535224 0.502803 0.535224 0.535224 0.569736 0.502803 0.535224 0.535225 0.569737 0.535224 0.569736 0.569737 0.606475 0.367892 0.391611 0.391611 0.41686 0.391611 0.416859 0.41686 0.443737 0.391611 0.41686 0.416859 0.443737 0.41686 0.443737 0.443737 0.472348 0.416859 0.443736 0.443737 0.472348 0.443736 0.472347 0.472348 0.502804 0.443737 0.472348 0.472348 0.502804 0.472348 0.502804 0.502804 0.535225 0.416859 0.443737 0.443736 0.472348 0.443737 0.472348 0.472348 0.502804 0.443736 0.472348 0.472347 0.502804 0.472348 0.502804 0.502804 0.535225 0.472348 0.502804 0.502804 0.535225 0.502804 0.535225 0.535225 0.569736 0.502804 0.535225 0.535225 0.569736 0.535225 0.569736 0.569736 0.606474 0.472347 0.502803 0.502804 0.535224 0.502803 0.535224 0.535224 0.569736 0.502804 0.535224 0.535225 0.569736 0.535224 0.569736 0.569736 0.606474 0.535224 0.569736 0.569736 0.606474 0.569736 0.606475 0.606474 0.645579 0.569736 0.606474 0.606474 0.645579 0.606474 0.645579 0.645579 0.687215 0.535225 0.569736 0.569736 0.606474 0.569736 0.606474 0.606474 0.645579 0.569736 0.606474 0.606474 0.645579 0.606474 0.645579 0.645579 0.687214 0.606474 0.645579 0.645579 0.687214 0.645579 0.687215 0.687214 0.731502 0.645579 0.687214 0.687214 0.731502 0.687214 0.731502 0.731502 0.778767 0.472347 0.502804 0.502803 0.535224 0.502804 0.535225 0.535224 0.569736 0.502803 0.535224 0.535224 0.569736 0.535224 0.569736 0.569736 0.606474 0.535225 0.569736 0.569736 0.606474 0.569736 0.606474 0.606474 0.645579 0.569736 0.606474 0.606474 0.645579 0.606474 0.645579 0.645579 0.687214 0.535224 0.569736 0.569736 0.606474 0.569736 0.606474 0.606474 0.645579 0.569736 0.606474 0.606475 0.645579 0.606474 0.645579 0.645579 0.687215 0.606474 0.645579 0.645579 0.687214 0.645579 0.687214 0.687214 0.731502 0.645579 0.687214 0.687215 0.731502 0.687214 0.731502 0.731502 0.778767 0.367879 0.391606 0.391602 0.416857 0.391606 0.416862 0.416857 0.443741 0.391602 0.416857 0.416854 0.443736 0.416857 0.443741 0.443736 0.472352 0.416862 0.443747 0.443741 0.472358 0.443747 0.472367 0.472358 0.502822 0.443741 0.472358 0.472352 0.502814 0.472358 0.502822 0.502814 0.53524 0.416854 0.443736 0.443734 0.472349 0.443736 0.472352 0.472349 0.502809 0.443734 0.472349 0.472346 0.502806 0.472349 0.502809 0.502806 0.53523 0.472352 0.502814 0.502809 0.535234 0.502814 0.53524 0.535234 0.56975 0.502809 0.535234 0.53523 0.569744 0.535234 0.56975 0.569744 0.606486 0.472367 0.502832 0.502822 0.535249 0.502832 0.535261 0.535249 0.569768 0.502822 0.535249 0.53524 0.569758 0.535249 0.569768 0.569758 0.606501 0.535261 0.569783 0.569768 0.606513 0.569783 0.606531 0.606513 0.645626 0.569768 0.606513 0.606501 0.645611 0.606513 0.645626 0.645611 0.687251 0.53524 0.569758 0.56975 0.606492 0.569758 0.606501 0.606492 0.645601 0.56975 0.606492 0.606486 0.645594 0.606492 0.645601 0.645594 0.687232 0.606501 0.645611 0.645601 0.68724 0.645611 0.687251 0.68724 0.731531 0.645601 0.68724 0.687232 0.731522 0.68724 0.731531 0.731522 0.778789 0.472346 0.502806 0.502804 0.535227 0.502806 0.53523 0.535227 0.569741 0.502804 0.535227 0.535225 0.569738 0.535227 0.569741 0.569738 0.606478 0.53523 0.569744 0.569741 0.606481 0.569744 0.606486 0.606481 0.645588 0.569741 0.606481 0.606478 0.645585 0.606481 0.645588 0.645585 0.687222 0.535225 0.569738 0.569737 0.606476 0.569738 0.606478 0.606476 0.645582 0.569737 0.606476 0.606475 0.64558 0.606476 0.645582 0.64558 0.687217 0.606478 0.645585 0.645582 0.687219 0.645585 0.687222 0.687219 0.731508 0.645582 0.687219 0.687217 0.731506 0.687219 0.731508 0.731506 0.778772 0.606531 0.645649 0.645626 0.687267 0.645649 0.687289 0.687267 0.731561 0.645626 0.687267 0.687251 0.731543 0.687267 0.731561 0.731543 0.778806 0.687289 0.731616 0.731561 0.778774 0.731616 0.778801 0.778774 0.828973 0.367879 0.391602 0.391606 0.416857 0.391602 0.416854 0.416857 0.443736 0.391606 0.416857 0.416862 0.443741 0.416857 0.443736 0.443741 0.472352 0.416854 0.443734 0.443736 0.472349 0.443734 0.472346 0.472349 0.502806 0.443736 0.472349 0.472352 0.502809 0.472349 0.502806 0.502809 0.53523 0.416862 0.443741 0.443747 0.472358 0.443741 0.472352 0.472358 0.502814 0.443747 0.472358 0.472367 0.502822 0.472358 0.502814 0.502822 0.53524 0.472352 0.502809 0.502814 0.535234 0.502809 0.53523 0.535234 0.569744 0.502814 0.535234 0.53524 0.56975 0.535234 0.569744 0.56975 0.606486 0.472346 0.502804 0.502806 0.535227 0.502804 0.535225 0.535227 0.569738 0.502806 0.535227 0.53523 0.569741 0.535227 0.569738 0.569741 0.606478 0.535225 0.569737 0.569738 0.606476 0.569737 0.606475 0.606476 0.64558 0.569738 0.606476 0.606478 0.645582 0.606476 0.64558 0.645582 0.687217 0.53523 0.569741 0.569744 0.606481 0.569741 0.606478 0.606481 0.645585 0.569744 0.606481 0.606486 0.645588 0.606481 0.645585 0.645588 0.687222 0.606478 0.645582 0.645585 0.687219 0.645582 0.687217 0.687219 0.731506 0.645585 0.687219 0.687222 0.731508 0.687219 0.731506 0.731508 0.778772 0.472367 0.502822 0.502832 0.535249 0.502822 0.53524 0.535249 0.569758 0.502832 0.535249 0.535261 0.569768 0.535249 0.569758 0.569768 0.606501 0.53524 0.56975 0.569758 0.606492 0.56975 0.606486 0.606492 0.645594 0.569758 0.606492 0.606501 0.645601 0.606492 0.645594 0.645601 0.687232 0.535261 0.569768 0.569783 0.606513 0.569768 0.606501 0.606513 0.645611 0.569783 0.606513 0.606531 0.645626 0.606513 0.645611 0.645626 0.687251 0.606501 0.645601 0.645611 0.68724 0.645601 0.687232 0.68724 0.731522 0.645611 0.68724 0.687251 0.731531 0.68724 0.731522 0.731531 0.778789 0.606531 0.645626 0.645649 0.687267 0.645626 0.687251 0.687267 0.731543 0.645649 0.687267 0.687289 0.731561 0.687267 0.731543 0.731561 0.778806 0.687289 0.731561 0.731616 0.778774 0.731616 0.778774 0.778801 0.828973 0.286505 0.304983 0.304985 0.324653 0.304983 0.324652 0.324653 0.34559 0.304985 0.324653 0.324656 0.345591 0.324653 0.34559 0.345591 0.367877 0.324652 0.345591 0.34559 0.367877 0.345591 0.367879 0.367877 0.391602 0.34559 0.367877 0.367877 0.3916 0.367877 0.391602 0.3916 0.416854 0.286538 0.305007 0.305014 0.324674 0.305007 0.324668 0.324674 0.345604 0.305014 0.324674 0.324679 0.345608 0.324674 0.345604 0.345608 0.367888 0.286538 0.305014 0.305007 0.324674 0.305014 0.324679 0.324674 0.345608 0.305007 0.324674 0.324668 0.345604 0.324674 0.345608 0.345604 0.367888 0.286505 0.304985 0.304983 0.324653 0.304985 0.324656 0.324653 0.345591 0.304983 0.324653 0.324652 0.34559 0.324653 0.345591 0.34559 0.367877 0.324652 0.34559 0.345591 0.367877 0.34559 0.367877 0.367877 0.3916 0.345591 0.367877 0.367879 0.391602 0.367877 0.3916 0.391602 0.416854 0.196912 0.209611 0.209978 0.223181 0.209611 0.22313 0.223181 0.237544 0.209978 0.223181 0.223045 0.237589 0.223181 0.237544 0.237589 0.252874 0.196861 0.209953 0.20975 0.223214 0.209953 0.223045 0.223214 0.2376 0.20975 0.223214 0.223229 0.237605 0.223214 0.2376 0.237605 0.252902 0.223045 0.237589 0.2376 0.252874 0.237589 0.252874 0.252874 0.269182 0.2376 0.252874 0.252902 0.269193 0.252874 0.269182 0.269193 0.286538 0.196861 0.20975 0.209953 0.223214 0.20975 0.223229 0.223214 0.237605 0.209953 0.223214 0.223045 0.2376 0.223214 0.237605 0.2376 0.252902 0.196912 0.209978 0.209611 0.223181 0.209978 0.223045 0.223181 0.237589 0.209611 0.223181 0.22313 0.237544 0.223181 0.237589 0.237544 0.252874 0.223045 0.2376 0.237589 0.252874 0.2376 0.252902 0.252874 0.269193 0.237589 0.252874 0.252874 0.269182 0.252874 0.269193 0.269182 0.286538 0.223229 0.237605 0.237605 0.252908 0.237605 0.252902 0.252908 0.269202 0.237605 0.252908 0.252902 0.269202 0.252908 0.269202 0.269202 0.286551 0.252902 0.269193 0.269202 0.286547 0.269193 0.286538 0.286547 0.305014 0.269202 0.286547 0.286551 0.305019 0.286547 0.305014 0.305019 0.324679 0.252902 0.269202 0.269193 0.286547 0.269202 0.286551 0.286547 0.305019 0.269193 0.286547 0.286538 0.305014 0.286547 0.305019 0.305014 0.324679 0.286551 0.305019 0.305019 0.324681 0.305019 0.324679 0.324681 0.345611 0.305019 0.324681 0.324679 0.345611 0.324681 0.345611 0.345611 0.367892 0.22313 0.237521 0.237544 0.252852 0.237521 0.25284 0.252852 0.269154 0.237544 0.252852 0.252874 0.269167 0.252852 0.269154 0.269167 0.286518 0.25284 0.269146 0.269154 0.286509 0.269146 0.286505 0.286509 0.304985 0.269154 0.286509 0.286518 0.30499 0.286509 0.304985 0.30499 0.324656 0.252874 0.269167 0.269182 0.286529 0.269167 0.286518 0.286529 0.304998 0.269182 0.286529 0.286538 0.305007 0.286529 0.304998 0.305007 0.324668 0.286518 0.30499 0.304998 0.324661 0.30499 0.324656 0.324661 0.345594 0.304998 0.324661 0.324668 0.345599 0.324661 0.345594 0.345599 0.367881 0.22313 0.237544 0.237521 0.252852 0.237544 0.252874 0.252852 0.269167 0.237521 0.252852 0.25284 0.269154 0.252852 0.269167 0.269154 0.286518 0.252874 0.269182 0.269167 0.286529 0.269182 0.286538 0.286529 0.305007 0.269167 0.286529 0.286518 0.304998 0.286529 0.305007 0.304998 0.324668 0.25284 0.269154 0.269146 0.286509 0.269154 0.286518 0.286509 0.30499 0.269146 0.286509 0.286505 0.304985 0.286509 0.30499 0.304985 0.324656 0.286518 0.304998 0.30499 0.324661 0.304998 0.324668 0.324661 0.345599 0.30499 0.324661 0.324656 0.345594 0.324661 0.345599 0.345594 0.367881 0.173721 0.185291 0.185291 0.197017 0.185291 0.196861 0.197017 0.20975 0.185291 0.197017 0.196861 0.20975 0.197017 0.20975 0.20975 0.223229 2.89351 2.98533 2.98536 3.08016 2.89353 2.98538 2.98534 3.08018 2.89351 2.98533 2.98533 3.08018 2.89351 2.98536 2.98533 3.08016 2.89351 2.98533 2.98534 3.08018 2.7182 2.80449 2.80449 2.89348 2.80449 2.89348 2.89348 2.98541 2.80449 2.89348 2.89348 2.98541 2.71825 2.80455 2.80454 2.89355 2.80455 2.89357 2.89355 2.98549 2.80454 2.89355 2.89353 2.98547 2.7182 2.80449 2.80449 2.89348 2.80449 2.89348 2.89348 2.98541 2.80449 2.89348 2.89348 2.98541 2.7182 2.80449 2.80449 2.89348 2.80449 2.89348 2.89348 2.98541 2.80449 2.89348 2.89348 2.98541 2.71825 2.80454 2.80455 2.89355 2.80454 2.89353 2.89355 2.98547 2.80455 2.89355 2.89357 2.98549 2.7182 2.80449 2.80449 2.89348 2.80449 2.89351 2.89348 2.98536 2.80449 2.89348 2.89348 2.98541 2.71822 2.8045 2.80449 2.89352 2.8045 2.89353 2.89352 2.98534 2.80449 2.89352 2.89351 2.98533 2.89352 2.98534 2.98533 3.08018 2.7182 2.80449 2.80449 2.89348 2.80449 2.89348 2.89348 2.98541 2.80449 2.89348 2.89351 2.98536 2.71822 2.80449 2.8045 2.89352 2.80449 2.89351 2.89352 2.98534 2.8045 2.89352 2.8935 2.98537 2.89352 2.98534 2.98537 3.08017 1.36689 1.41027 1.41027 1.45503 1.41027 1.45503 1.45503 1.50122 1.41027 1.45503 1.45503 1.50122 1.45503 1.50122 1.50122 1.54887 1.36689 1.41027 1.41027 1.45503 1.41027 1.45503 1.45503 1.50122 1.41027 1.45503 1.45504 1.50122 1.45503 1.50122 1.50122 1.54887 1.45503 1.50122 1.50122 1.54887 1.50122 1.54887 1.54887 1.59803 1.50122 1.54887 1.54887 1.59803 1.54887 1.59803 1.59803 1.64875 1.28407 1.32483 1.32483 1.36688 1.32483 1.36688 1.36688 1.41026 1.32483 1.36688 1.36688 1.41027 1.36688 1.41026 1.41027 1.45503 1.36688 1.41026 1.41026 1.45502 1.41026 1.45502 1.45502 1.5012 1.41026 1.45502 1.45503 1.50121 1.45502 1.5012 1.50121 1.54885 1.36688 1.41027 1.41027 1.45503 1.41027 1.45503 1.45503 1.50121 1.41027 1.45503 1.45503 1.50121 1.45503 1.50121 1.50121 1.54886 1.45503 1.50121 1.50121 1.54886 1.50121 1.54885 1.54886 1.59802 1.50121 1.54886 1.54886 1.59802 1.54886 1.59802 1.59802 1.64874 1.45502 1.5012 1.5012 1.54885 1.5012 1.54884 1.54885 1.59801 1.5012 1.54885 1.54885 1.59801 1.54885 1.59801 1.59801 1.64873 1.54884 1.598 1.59801 1.64873 1.598 1.64872 1.64873 1.70106 1.59801 1.64873 1.64873 1.70106 1.64873 1.70106 1.70106 1.75505 1.54885 1.59801 1.59802 1.64874 1.59801 1.64873 1.64874 1.70107 1.59802 1.64874 1.64874 1.70107 1.64874 1.70107 1.70107 1.75507 1.64873 1.70106 1.70107 1.75506 1.70106 1.75505 1.75506 1.81077 1.70107 1.75506 1.75507 1.81077 1.75506 1.81077 1.81077 1.86825 1.45503 1.50121 1.50122 1.54886 1.50121 1.54886 1.54886 1.59803 1.50122 1.54886 1.54887 1.59803 1.54886 1.59803 1.59803 1.64875 1.54886 1.59802 1.59803 1.64875 1.59802 1.64874 1.64875 1.70108 1.59803 1.64875 1.64875 1.70108 1.64875 1.70108 1.70108 1.75507 1.54887 1.59803 1.59803 1.64875 1.59803 1.64875 1.64875 1.70108 1.59803 1.64875 1.64875 1.70109 1.64875 1.70108 1.70109 1.75508 1.64875 1.70108 1.70108 1.75508 1.70108 1.75507 1.75508 1.81078 1.70108 1.75508 1.75508 1.81079 1.75508 1.81078 1.81079 1.86826 1.64874 1.70107 1.70108 1.75507 1.70107 1.75507 1.75507 1.81078 1.70108 1.75507 1.75507 1.81078 1.75507 1.81078 1.81078 1.86826 1.75507 1.81077 1.81078 1.86825 1.81077 1.86825 1.86825 1.92755 1.81078 1.86825 1.86826 1.92756 1.86825 1.92755 1.92756 1.98874 1.75507 1.81078 1.81078 1.86826 1.81078 1.86826 1.86826 1.92756 1.81078 1.86826 1.86826 1.92756 1.86826 1.92756 1.92756 1.98875 1.86826 1.92756 1.92756 1.98874 1.92756 1.98874 1.98874 2.05187 1.92756 1.98874 1.98875 2.05187 1.98874 2.05187 2.05187 2.117 1.36689 1.41027 1.41027 1.45503 1.41027 1.45504 1.45503 1.50122 1.41027 1.45503 1.45503 1.50122 1.45503 1.50122 1.50122 1.54887 1.36689 1.41027 1.41027 1.45503 1.41027 1.45503 1.45503 1.50122 1.41027 1.45503 1.45503 1.50122 1.45503 1.50122 1.50122 1.54887 1.45503 1.50122 1.50122 1.54887 1.50122 1.54887 1.54887 1.59803 1.50122 1.54887 1.54887 1.59803 1.54887 1.59803 1.59803 1.64875 1.45504 1.50122 1.50122 1.54887 1.50122 1.54887 1.54887 1.59803 1.50122 1.54887 1.54887 1.59803 1.54887 1.59803 1.59803 1.64875 1.54887 1.59803 1.59803 1.64875 1.59803 1.64875 1.64875 1.70109 1.59803 1.64875 1.64875 1.70109 1.64875 1.70109 1.70109 1.75508 1.54887 1.59803 1.59803 1.64875 1.59803 1.64875 1.64875 1.70109 1.59803 1.64875 1.64875 1.70109 1.64875 1.70109 1.70109 1.75508 1.64875 1.70109 1.70109 1.75508 1.70109 1.75508 1.75508 1.81079 1.70109 1.75508 1.75508 1.81079 1.75508 1.81079 1.81079 1.86827 1.45503 1.50122 1.50122 1.54887 1.50122 1.54887 1.54887 1.59803 1.50122 1.54887 1.54886 1.59803 1.54887 1.59803 1.59803 1.64875 1.54887 1.59803 1.59803 1.64875 1.59803 1.64875 1.64875 1.70108 1.59803 1.64875 1.64875 1.70108 1.64875 1.70108 1.70108 1.75508 1.54886 1.59803 1.59803 1.64875 1.59803 1.64875 1.64875 1.70108 1.59803 1.64875 1.64875 1.70108 1.64875 1.70108 1.70108 1.75507 1.64875 1.70108 1.70108 1.75508 1.70108 1.75508 1.75508 1.81078 1.70108 1.75508 1.75507 1.81078 1.75508 1.81078 1.81078 1.86826 1.64875 1.70109 1.70108 1.75508 1.70109 1.75508 1.75508 1.81079 1.70108 1.75508 1.75508 1.81079 1.75508 1.81079 1.81079 1.86826 1.75508 1.81079 1.81079 1.86827 1.81079 1.86827 1.86827 1.92757 1.81079 1.86827 1.86826 1.92757 1.86827 1.92757 1.92757 1.98875 1.75508 1.81079 1.81078 1.86826 1.81079 1.86826 1.86826 1.92756 1.81078 1.86826 1.86826 1.92756 1.86826 1.92756 1.92756 1.98875 1.86826 1.92757 1.92756 1.98875 1.92757 1.98875 1.98875 2.05188 1.92756 1.98875 1.98875 2.05187 1.98875 2.05188 2.05187 2.117 1.64875 1.70109 1.70109 1.75508 1.70109 1.75508 1.75508 1.81079 1.70109 1.75508 1.75508 1.81079 1.75508 1.81079 1.81079 1.86827 1.75508 1.81079 1.81079 1.86827 1.81079 1.86826 1.86827 1.92757 1.81079 1.86827 1.86827 1.92757 1.86827 1.92757 1.92757 1.98875 1.75508 1.81079 1.81079 1.86827 1.81079 1.86827 1.86827 1.92757 1.81079 1.86827 1.86827 1.92757 1.86827 1.92757 1.92757 1.98875 1.86827 1.92757 1.92757 1.98875 1.92757 1.98875 1.98875 2.05188 1.92757 1.98875 1.98875 2.05188 1.98875 2.05188 2.05188 2.11701 1.86826 1.92756 1.92757 1.98875 1.92756 1.98875 1.98875 2.05188 1.92757 1.98875 1.98875 2.05188 1.98875 2.05188 2.05188 2.11701 1.98875 2.05187 2.05188 2.117 2.05187 2.117 2.117 2.1842 2.05188 2.117 2.11701 2.1842 2.117 2.1842 2.1842 2.25353 1.98875 2.05188 2.05188 2.11701 2.05188 2.11701 2.11701 2.18421 2.05188 2.11701 2.11701 2.18421 2.11701 2.18421 2.18421 2.25354 2.11701 2.1842 2.18421 2.25354 2.1842 2.25353 2.25354 2.32507 2.18421 2.25354 2.25354 2.32507 2.25354 2.32507 2.32507 2.39888 1.86827 1.92757 1.92757 1.98875 1.92757 1.98875 1.98875 2.05188 1.92757 1.98875 1.98875 2.05188 1.98875 2.05188 2.05188 2.11701 1.98875 2.05188 2.05188 2.11701 2.05188 2.11701 2.11701 2.18421 2.05188 2.11701 2.11701 2.18421 2.11701 2.18421 2.18421 2.25354 1.98875 2.05188 2.05188 2.11701 2.05188 2.11701 2.11701 2.18421 2.05188 2.11701 2.117 2.1842 2.11701 2.18421 2.184