# vtk DataFile Version 3.0
#This file was generated by the deal.II library on 2020/3/19 at 13:55:07
ASCII
DATASET UNSTRUCTURED_GRID

POINTS 2116 double
-1 -1 0
-0.75 -1 0
-1 -0.75 0
-0.75 -0.75 0
-0.75 -1 0
-0.5 -1 0
-0.75 -0.75 0
-0.5 -0.75 0
-1 -0.75 0
-0.75 -0.75 0
-1 -0.5 0
-0.75 -0.5 0
-0.75 -0.75 0
-0.5 -0.75 0
-0.75 -0.5 0
-0.5 -0.5 0
-0.5 -1 0
-0.25 -1 0
-0.5 -0.75 0
-0.25 -0.75 0
-1 -0.5 0
-0.75 -0.5 0
-1 -0.25 0
-0.75 -0.25 0
0.5 -0.5 0
0.625 -0.5 0
0.5 -0.375 0
0.625 -0.375 0
0.625 -0.5 0
0.75 -0.5 0
0.625 -0.375 0
0.75 -0.375 0
0.5 -0.375 0
0.625 -0.375 0
0.5 -0.25 0
0.625 -0.25 0
-0.5 0.5 0
-0.375 0.5 0
-0.5 0.625 0
-0.375 0.625 0
-0.375 0.5 0
-0.25 0.5 0
-0.375 0.625 0
-0.25 0.625 0
-0.5 0.625 0
-0.375 0.625 0
-0.5 0.75 0
-0.375 0.75 0
-0.25 -0.25 0
-0.125 -0.25 0
-0.25 -0.125 0
-0.125 -0.125 0
-0.125 -0.25 0
0 -0.25 0
-0.125 -0.125 0
0 -0.125 0
-0.25 -0.125 0
-0.125 -0.125 0
-0.25 0 0
-0.125 0 0
-0.125 -0.125 0
0 -0.125 0
-0.125 0 0
0 0 0
0.25 -0.75 0
0.375 -0.75 0
0.25 -0.625 0
0.375 -0.625 0
0.375 -0.75 0
0.5 -0.75 0
0.375 -0.625 0
0.5 -0.625 0
0.25 -0.625 0
0.375 -0.625 0
0.25 -0.5 0
0.375 -0.5 0
0.375 -0.625 0
0.5 -0.625 0
0.375 -0.5 0
0.5 -0.5 0
0.75 -1 0
0.875 -1 0
0.75 -0.875 0
0.875 -0.875 0
0.875 -1 0
1 -1 0
0.875 -0.875 0
1 -0.875 0
0.75 -0.875 0
0.875 -0.875 0
0.75 -0.75 0
0.875 -0.75 0
0.875 -0.875 0
1 -0.875 0
0.875 -0.75 0
1 -0.75 0
0.5 -0.75 0
0.625 -0.75 0
0.5 -0.625 0
0.625 -0.625 0
0.625 -0.75 0
0.75 -0.75 0
0.625 -0.625 0
0.75 -0.625 0
0.5 -0.625 0
0.625 -0.625 0
0.5 -0.5 0
0.625 -0.5 0
0.625 -0.625 0
0.75 -0.625 0
0.625 -0.5 0
0.75 -0.5 0
0.75 -0.75 0
0.875 -0.75 0
0.75 -0.625 0
0.875 -0.625 0
0.875 -0.75 0
1 -0.75 0
0.875 -0.625 0
1 -0.625 0
0.75 -0.625 0
0.875 -0.625 0
0.75 -0.5 0
0.875 -0.5 0
0.875 -0.625 0
1 -0.625 0
0.875 -0.5 0
1 -0.5 0
0 -0.5 0
0.125 -0.5 0
0 -0.375 0
0.125 -0.375 0
0.125 -0.5 0
0.25 -0.5 0
0.125 -0.375 0
0.25 -0.375 0
0 -0.375 0
0.125 -0.375 0
0 -0.25 0
0.125 -0.25 0
0.125 -0.375 0
0.25 -0.375 0
0.125 -0.25 0
0.25 -0.25 0
0.25 -0.5 0
0.375 -0.5 0
0.25 -0.375 0
0.375 -0.375 0
0.375 -0.5 0
0.5 -0.5 0
0.375 -0.375 0
0.5 -0.375 0
0.25 -0.375 0
0.375 -0.375 0
0.25 -0.25 0
0.375 -0.25 0
0.375 -0.375 0
0.5 -0.375 0
0.375 -0.25 0
0.5 -0.25 0
0 -0.25 0
0.125 -0.25 0
0 -0.125 0
0.125 -0.125 0
0.125 -0.25 0
0.25 -0.25 0
0.125 -0.125 0
0.25 -0.125 0
0 -0.125 0
0.125 -0.125 0
0 0 0
0.125 0 0
0.125 -0.125 0
0.25 -0.125 0
0.125 0 0
0.25 0 0
0.25 -0.25 0
0.375 -0.25 0
0.25 -0.125 0
0.375 -0.125 0
0.375 -0.25 0
0.5 -0.25 0
0.375 -0.125 0
0.5 -0.125 0
0.25 -0.125 0
0.375 -0.125 0
0.25 0 0
0.375 0 0
-0.75 0.25 0
-0.625 0.25 0
-0.75 0.375 0
-0.625 0.375 0
-0.625 0.25 0
-0.5 0.25 0
-0.625 0.375 0
-0.5 0.375 0
-0.75 0.375 0
-0.625 0.375 0
-0.75 0.5 0
-0.625 0.5 0
-0.625 0.375 0
-0.5 0.375 0
-0.625 0.5 0
-0.5 0.5 0
-0.5 0 0
-0.375 0 0
-0.5 0.125 0
-0.375 0.125 0
-0.375 0 0
-0.25 0 0
-0.375 0.125 0
-0.25 0.125 0
-0.5 0.125 0
-0.375 0.125 0
-0.5 0.25 0
-0.375 0.25 0
-0.375 0.125 0
-0.25 0.125 0
-0.375 0.25 0
-0.25 0.25 0
-0.25 0 0
-0.125 0 0
-0.25 0.125 0
-0.125 0.125 0
-0.125 0 0
0 0 0
-0.125 0.125 0
0 0.125 0
-0.25 0.125 0
-0.125 0.125 0
-0.25 0.25 0
-0.125 0.25 0
-0.125 0.125 0
0 0.125 0
-0.125 0.25 0
0 0.25 0
-0.5 0.25 0
-0.375 0.25 0
-0.5 0.375 0
-0.375 0.375 0
-0.375 0.25 0
-0.25 0.25 0
-0.375 0.375 0
-0.25 0.375 0
-0.5 0.375 0
-0.375 0.375 0
-0.5 0.5 0
-0.375 0.5 0
-0.375 0.375 0
-0.25 0.375 0
-0.375 0.5 0
-0.25 0.5 0
-0.25 0.25 0
-0.125 0.25 0
-0.25 0.375 0
-0.125 0.375 0
-0.125 0.25 0
0 0.25 0
-0.125 0.375 0
0 0.375 0
-0.25 0.375 0
-0.125 0.375 0
-0.25 0.5 0
-0.125 0.5 0
-0.75 0.5 0
-0.625 0.5 0
-0.75 0.625 0
-0.625 0.625 0
-0.625 0.5 0
-0.5 0.5 0
-0.625 0.625 0
-0.5 0.625 0
-0.75 0.625 0
-0.625 0.625 0
-0.75 0.75 0
-0.625 0.75 0
-0.625 0.625 0
-0.5 0.625 0
-0.625 0.75 0
-0.5 0.75 0
-1 0.75 0
-0.875 0.75 0
-1 0.875 0
-0.875 0.875 0
-0.875 0.75 0
-0.75 0.75 0
-0.875 0.875 0
-0.75 0.875 0
-1 0.875 0
-0.875 0.875 0
-1 1 0
-0.875 1 0
-0.875 0.875 0
-0.75 0.875 0
-0.875 1 0
-0.75 1 0
-0.75 0.75 0
-0.625 0.75 0
-0.75 0.875 0
-0.625 0.875 0
-0.625 0.75 0
-0.5 0.75 0
-0.625 0.875 0
-0.5 0.875 0
-0.75 0.875 0
-0.625 0.875 0
-0.75 1 0
-0.625 1 0
-0.625 0.875 0
-0.5 0.875 0
-0.625 1 0
-0.5 1 0
0 0 0
0.125 0 0
0 0.125 0
0.125 0.125 0
0.125 0 0
0.25 0 0
0.125 0.125 0
0.25 0.125 0
0 0.125 0
0.125 0.125 0
0 0.25 0
0.125 0.25 0
-0.25 -1 0
-0.125 -1 0
-0.25 -0.875 0
-0.125 -0.875 0
-0.125 -1 0
0 -1 0
-0.125 -0.875 0
0 -0.875 0
-0.25 -0.875 0
-0.125 -0.875 0
-0.25 -0.75 0
-0.125 -0.75 0
-0.125 -0.875 0
0 -0.875 0
-0.125 -0.75 0
0 -0.75 0
-0.5 -0.75 0
-0.375 -0.75 0
-0.5 -0.625 0
-0.375 -0.625 0
-0.375 -0.75 0
-0.25 -0.75 0
-0.375 -0.625 0
-0.25 -0.625 0
-0.5 -0.625 0
-0.375 -0.625 0
-0.5 -0.5 0
-0.375 -0.5 0
-0.375 -0.625 0
-0.25 -0.625 0
-0.375 -0.5 0
-0.25 -0.5 0
-0.25 -0.75 0
-0.125 -0.75 0
-0.25 -0.625 0
-0.125 -0.625 0
-0.125 -0.75 0
0 -0.75 0
-0.125 -0.625 0
0 -0.625 0
-0.25 -0.625 0
-0.125 -0.625 0
-0.25 -0.5 0
-0.125 -0.5 0
-0.125 -0.625 0
0 -0.625 0
-0.125 -0.5 0
0 -0.5 0
-0.75 -0.5 0
-0.625 -0.5 0
-0.75 -0.375 0
-0.625 -0.375 0
-0.625 -0.5 0
-0.5 -0.5 0
-0.625 -0.375 0
-0.5 -0.375 0
-0.75 -0.375 0
-0.625 -0.375 0
-0.75 -0.25 0
-0.625 -0.25 0
-0.625 -0.375 0
-0.5 -0.375 0
-0.625 -0.25 0
-0.5 -0.25 0
-1 -0.25 0
-0.875 -0.25 0
-1 -0.125 0
-0.875 -0.125 0
-0.875 -0.25 0
-0.75 -0.25 0
-0.875 -0.125 0
-0.75 -0.125 0
-1 -0.125 0
-0.875 -0.125 0
-1 0 0
-0.875 0 0
-0.875 -0.125 0
-0.75 -0.125 0
-0.875 0 0
-0.75 0 0
-0.75 -0.25 0
-0.625 -0.25 0
-0.75 -0.125 0
-0.625 -0.125 0
-0.625 -0.25 0
-0.5 -0.25 0
-0.625 -0.125 0
-0.5 -0.125 0
-0.75 -0.125 0
-0.625 -0.125 0
-0.75 0 0
-0.625 0 0
-0.625 -0.125 0
-0.5 -0.125 0
-0.625 0 0
-0.5 0 0
-0.5 -0.5 0
-0.375 -0.5 0
-0.5 -0.375 0
-0.375 -0.375 0
-0.375 -0.5 0
-0.25 -0.5 0
-0.375 -0.375 0
-0.25 -0.375 0
-0.5 -0.375 0
-0.375 -0.375 0
-0.5 -0.25 0
-0.375 -0.25 0
-0.375 -0.375 0
-0.25 -0.375 0
-0.375 -0.25 0
-0.25 -0.25 0
-0.25 -0.5 0
-0.125 -0.5 0
-0.25 -0.375 0
-0.125 -0.375 0
-0.125 -0.5 0
0 -0.5 0
-0.125 -0.375 0
0 -0.375 0
-0.25 -0.375 0
-0.125 -0.375 0
-0.25 -0.25 0
-0.125 -0.25 0
-0.125 -0.375 0
0 -0.375 0
-0.125 -0.25 0
0 -0.25 0
-0.5 -0.25 0
-0.375 -0.25 0
-0.5 -0.125 0
-0.375 -0.125 0
-0.375 -0.25 0
-0.25 -0.25 0
-0.375 -0.125 0
-0.25 -0.125 0
-0.5 -0.125 0
-0.375 -0.125 0
-0.5 0 0
-0.375 0 0
-0.375 -0.125 0
-0.25 -0.125 0
-0.375 0 0
-0.25 0 0
0 -1 0
0.125 -1 0
0 -0.875 0
0.125 -0.875 0
0.125 -1 0
0.25 -1 0
0.125 -0.875 0
0.25 -0.875 0
0 -0.875 0
0.125 -0.875 0
0 -0.75 0
0.125 -0.75 0
0.125 -0.875 0
0.25 -0.875 0
0.125 -0.75 0
0.25 -0.75 0
0.25 -1 0
0.375 -1 0
0.25 -0.875 0
0.375 -0.875 0
0.375 -1 0
0.5 -1 0
0.375 -0.875 0
0.5 -0.875 0
0.25 -0.875 0
0.375 -0.875 0
0.25 -0.75 0
0.375 -0.75 0
0.375 -0.875 0
0.5 -0.875 0
0.375 -0.75 0
0.5 -0.75 0
0 -0.75 0
0.125 -0.75 0
0 -0.625 0
0.125 -0.625 0
0.125 -0.75 0
0.25 -0.75 0
0.125 -0.625 0
0.25 -0.625 0
0 -0.625 0
0.125 -0.625 0
0 -0.5 0
0.125 -0.5 0
0.125 -0.625 0
0.25 -0.625 0
0.125 -0.5 0
0.25 -0.5 0
0.5 -1 0
0.625 -1 0
0.5 -0.875 0
0.625 -0.875 0
0.625 -1 0
0.75 -1 0
0.625 -0.875 0
0.75 -0.875 0
0.5 -0.875 0
0.625 -0.875 0
0.5 -0.75 0
0.625 -0.75 0
0.625 -0.875 0
0.75 -0.875 0
0.625 -0.75 0
0.75 -0.75 0
-1 0 0
-0.875 0 0
-1 0.125 0
-0.875 0.125 0
-0.875 0 0
-0.75 0 0
-0.875 0.125 0
-0.75 0.125 0
-1 0.125 0
-0.875 0.125 0
-1 0.25 0
-0.875 0.25 0
-0.875 0.125 0
-0.75 0.125 0
-0.875 0.25 0
-0.75 0.25 0
-0.75 0 0
-0.625 0 0
-0.75 0.125 0
-0.625 0.125 0
-0.625 0 0
-0.5 0 0
-0.625 0.125 0
-0.5 0.125 0
-0.75 0.125 0
-0.625 0.125 0
-0.75 0.25 0
-0.625 0.25 0
-0.625 0.125 0
-0.5 0.125 0
-0.625 0.25 0
-0.5 0.25 0
-1 0.25 0
-0.875 0.25 0
-1 0.375 0
-0.875 0.375 0
-0.875 0.25 0
-0.75 0.25 0
-0.875 0.375 0
-0.75 0.375 0
-1 0.375 0
-0.875 0.375 0
-1 0.5 0
-0.875 0.5 0
-0.875 0.375 0
-0.75 0.375 0
-0.875 0.5 0
-0.75 0.5 0
-1 0.5 0
-0.875 0.5 0
-1 0.625 0
-0.875 0.625 0
-0.875 0.5 0
-0.75 0.5 0
-0.875 0.625 0
-0.75 0.625 0
-1 0.625 0
-0.875 0.625 0
-1 0.75 0
-0.875 0.75 0
-0.875 0.625 0
-0.75 0.625 0
-0.875 0.75 0
-0.75 0.75 0
0.625 0.375 0
0.6875 0.375 0
0.625 0.4375 0
0.6875 0.4375 0
0.6875 0.375 0
0.75 0.375 0
0.6875 0.4375 0
0.75 0.4375 0
0.625 0.4375 0
0.6875 0.4375 0
0.625 0.5 0
0.6875 0.5 0
0.6875 0.4375 0
0.75 0.4375 0
0.6875 0.5 0
0.75 0.5 0
0.75 0.25 0
0.8125 0.25 0
0.75 0.3125 0
0.8125 0.3125 0
0.8125 0.25 0
0.875 0.25 0
0.8125 0.3125 0
0.875 0.3125 0
0.75 0.3125 0
0.8125 0.3125 0
0.75 0.375 0
0.8125 0.375 0
0.8125 0.3125 0
0.875 0.3125 0
0.8125 0.375 0
0.875 0.375 0
0.875 0.25 0
0.9375 0.25 0
0.875 0.3125 0
0.9375 0.3125 0
0.9375 0.25 0
1 0.25 0
0.9375 0.3125 0
1 0.3125 0
0.875 0.3125 0
0.9375 0.3125 0
0.875 0.375 0
0.9375 0.375 0
0.9375 0.3125 0
1 0.3125 0
0.9375 0.375 0
1 0.375 0
0.75 0.375 0
0.8125 0.375 0
0.75 0.4375 0
0.8125 0.4375 0
0.8125 0.375 0
0.875 0.375 0
0.8125 0.4375 0
0.875 0.4375 0
0.75 0.4375 0
0.8125 0.4375 0
0.75 0.5 0
0.8125 0.5 0
0.8125 0.4375 0
0.875 0.4375 0
0.8125 0.5 0
0.875 0.5 0
0.875 0.375 0
0.9375 0.375 0
0.875 0.4375 0
0.9375 0.4375 0
0.9375 0.375 0
1 0.375 0
0.9375 0.4375 0
1 0.4375 0
0.875 0.4375 0
0.9375 0.4375 0
0.875 0.5 0
0.9375 0.5 0
0.9375 0.4375 0
1 0.4375 0
0.9375 0.5 0
1 0.5 0
0.375 0.625 0
0.4375 0.625 0
0.375 0.6875 0
0.4375 0.6875 0
0.4375 0.625 0
0.5 0.625 0
0.4375 0.6875 0
0.5 0.6875 0
0.375 0.6875 0
0.4375 0.6875 0
0.375 0.75 0
0.4375 0.75 0
0.4375 0.6875 0
0.5 0.6875 0
0.4375 0.75 0
0.5 0.75 0
0.25 0.75 0
0.3125 0.75 0
0.25 0.8125 0
0.3125 0.8125 0
0.3125 0.75 0
0.375 0.75 0
0.3125 0.8125 0
0.375 0.8125 0
0.25 0.8125 0
0.3125 0.8125 0
0.25 0.875 0
0.3125 0.875 0
0.3125 0.8125 0
0.375 0.8125 0
0.3125 0.875 0
0.375 0.875 0
0.375 0.75 0
0.4375 0.75 0
0.375 0.8125 0
0.4375 0.8125 0
0.4375 0.75 0
0.5 0.75 0
0.4375 0.8125 0
0.5 0.8125 0
0.375 0.8125 0
0.4375 0.8125 0
0.375 0.875 0
0.4375 0.875 0
0.4375 0.8125 0
0.5 0.8125 0
0.4375 0.875 0
0.5 0.875 0
0.25 0.875 0
0.3125 0.875 0
0.25 0.9375 0
0.3125 0.9375 0
0.3125 0.875 0
0.375 0.875 0
0.3125 0.9375 0
0.375 0.9375 0
0.25 0.9375 0
0.3125 0.9375 0
0.25 1 0
0.3125 1 0
0.3125 0.9375 0
0.375 0.9375 0
[...]
POINT_DATA 2116
SCALARS solution double 1
LOOKUP_TABLE default
0.135335 0.173774 0.173774 0.222982 0.173774 0.22313 0.222982 0.285888 0.173774 0.222982 0.22313 0.285888 0.222982 0.285888 0.285888 0.367483 0.22313 0.286505 0.285888 0.367343 0.22313 0.285888 0.286505 0.367343 0.999657 1.13273 1.13269 1.28319 1.13273 1.2833 1.28319 1.45464 1.13269 1.28319 1.28318 1.45464 0.999657 1.13269 1.13273 1.28319 1.13269 1.28318 1.28319 1.45464 1.13273 1.28319 1.2833 1.45464 0.606638 0.687307 0.687307 0.778713 0.687307 0.778709 0.778713 0.882294 0.687307 0.778713 0.778709 0.882294 0.778713 0.882294 0.882294 0.999649 0.606539 0.687246 0.687252 0.778685 0.687246 0.778712 0.778685 0.882309 0.687252 0.778685 0.778684 0.88228 0.778685 0.882309 0.88228 0.999657 0.778801 0.882497 0.882468 0.99999 0.882497 1 0.99999 1.13315 0.882468 0.99999 0.999887 1.13308 0.99999 1.13315 1.13308 1.28403 0.778712 0.88238 0.882309 0.99973 0.88238 0.999887 0.99973 1.13285 0.882309 0.99973 0.999657 1.13273 0.99973 1.13285 1.13273 1.2833 0.999887 1.13308 1.13285 1.28382 1.13308 1.28403 1.28382 1.45499 1.13285 1.28382 1.2833 1.4544 1.28382 1.45499 1.4544 1.64872 0.606604 0.687273 0.687294 0.778695 0.687273 0.778684 0.778695 0.882278 0.687294 0.778695 0.778709 0.882286 0.778695 0.882278 0.882286 0.999638 0.778684 0.88228 0.882278 0.999636 0.88228 0.999657 0.999636 1.13269 0.882278 0.999636 0.999638 1.13268 0.999636 1.13269 1.13268 1.28318 0.778709 0.882286 0.882294 0.999646 0.882286 0.999638 0.999646 1.13269 0.882294 0.999646 0.999649 1.13269 0.999646 1.13269 1.13269 1.2832 0.999638 1.13268 1.13269 1.28319 1.13268 1.28318 1.28319 1.45466 1.13269 1.28319 1.2832 1.45468 0.606539 0.687252 0.687246 0.778685 0.687252 0.778684 0.778685 0.88228 0.687246 0.778685 0.778712 0.882309 0.778685 0.88228 0.882309 0.999657 0.606604 0.687294 0.687273 0.778695 0.687294 0.778709 0.778695 0.882286 0.687273 0.778695 0.778684 0.882278 0.778695 0.882286 0.882278 0.999638 0.778709 0.882294 0.882286 0.999646 0.882294 0.999649 0.999646 1.13269 0.882286 0.999646 0.999638 1.13269 0.999646 1.13269 1.13269 1.2832 0.778684 0.882278 0.88228 0.999636 0.882278 0.999638 0.999636 1.13268 0.88228 0.999636 0.999657 1.13269 0.999636 1.13268 1.13269 1.28318 0.999638 1.13269 1.13268 1.28319 1.13269 1.2832 1.28319 1.45468 1.13268 1.28319 1.28318 1.45466 0.778712 0.882309 0.88238 0.99973 0.882309 0.999657 0.99973 1.13273 0.88238 0.99973 0.999887 1.13285 0.99973 1.13273 1.13285 1.2833 0.778801 0.882468 0.882497 0.99999 0.882468 0.999887 0.99999 1.13308 0.882497 0.99999 1 1.13315 0.99999 1.13308 1.13315 1.28403 0.999887 1.13285 1.13308 1.28382 1.13285 1.2833 1.28382 1.4544 1.13308 1.28382 1.28403 1.45499 1.28382 1.4544 1.45499 1.64872 0.999649 1.13269 1.13269 1.28321 1.13269 1.2832 1.28321 1.45469 1.13269 1.28321 1.2832 1.45469 0.286505 0.324652 0.326924 0.368188 0.324652 0.367879 0.368188 0.416993 0.326924 0.368188 0.367343 0.417251 0.368188 0.416993 0.417251 0.472536 0.285888 0.326616 0.326686 0.368338 0.326616 0.367343 0.368338 0.417288 0.326686 0.368338 0.367483 0.417329 0.368338 0.417288 0.417329 0.472649 0.367343 0.417251 0.417288 0.472515 0.417251 0.472536 0.472515 0.535403 0.417288 0.472515 0.472649 0.535443 0.472515 0.535403 0.535443 0.606604 0.285888 0.326686 0.326616 0.368338 0.326686 0.367483 0.368338 0.417329 0.326616 0.368338 0.367343 0.417288 0.368338 0.417329 0.417288 0.472649 0.286505 0.326924 0.324652 0.368188 0.326924 0.367343 0.368188 0.417251 0.324652 0.368188 0.367879 0.416993 0.368188 0.417251 0.416993 0.472536 0.367343 0.417288 0.417251 0.472515 0.417288 0.472649 0.472515 0.535443 0.417251 0.472515 0.472536 0.535403 0.472515 0.535443 0.535403 0.606604 0.367483 0.417329 0.417329 0.472577 0.417329 0.472649 0.472577 0.535467 0.417329 0.472577 0.472649 0.535467 0.472577 0.535467 0.535467 0.606638 0.472649 0.535443 0.535467 0.606638 0.535443 0.606604 0.606638 0.687294 0.535467 0.606638 0.606638 0.687307 0.606638 0.687294 0.687307 0.778709 0.472649 0.535467 0.535443 0.606638 0.535467 0.606638 0.606638 0.687307 0.535443 0.606638 0.606604 0.687294 0.606638 0.687307 0.687294 0.778709 0.367879 0.416862 0.416993 0.472424 0.416862 0.472367 0.472424 0.535281 0.416993 0.472424 0.472536 0.535337 0.472424 0.535281 0.535337 0.606539 0.472367 0.535261 0.535281 0.606524 0.535261 0.606531 0.606524 0.687263 0.535281 0.606524 0.606539 0.687246 0.606524 0.687263 0.687246 0.778712 0.472536 0.535337 0.535403 0.606577 0.535337 0.606539 0.606577 0.687252 0.535403 0.606577 0.606604 0.687273 0.606577 0.687252 0.687273 0.778684 0.606531 0.687289 0.687263 0.778766 0.687289 0.778801 0.778766 0.882468 0.687263 0.778766 0.778712 0.88238 0.778766 0.882468 0.88238 0.999887 0.367879 0.416993 0.416862 0.472424 0.416993 0.472536 0.472424 0.535337 0.416862 0.472424 0.472367 0.535281 0.472424 0.535337 0.535281 0.606539 0.472536 0.535403 0.535337 0.606577 0.535403 0.606604 0.606577 0.687273 0.535337 0.606577 0.606539 0.687252 0.606577 0.687273 0.687252 0.778684 0.472367 0.535281 0.535261 0.606524 0.535281 0.606539 0.606524 0.687246 0.535261 0.606524 0.606531 0.687263 0.606524 0.687246 0.687263 0.778712 0.606531 0.687263 0.687289 0.778766 0.687263 0.778712 0.778766 0.88238 0.687289 0.778766 0.778801 0.882468 0.778766 0.88238 0.882468 0.999887 2.7186 2.89388 2.8939 3.08048 2.89388 3.08046 3.08048 3.2791 2.8939 3.08048 3.0805 3.27912 3.08048 3.2791 3.27912 3.49055 2.71854 2.8938 2.89385 3.08042 2.8938 3.08036 3.08042 3.27901 2.89385 3.08042 3.08046 3.27906 3.08042 3.27901 3.27906 3.49048 3.08036 3.27895 3.27901 3.49042 3.27895 3.49034 3.49042 3.71545 3.27901 3.49042 3.49048 3.71552 3.49042 3.71545 3.71552 3.95508 3.08046 3.27906 3.2791 3.49052 3.27906 3.49048 3.49052 3.71558 3.2791 3.49052 3.49055 3.71561 3.49052 3.71558 3.71561 3.95519 3.49048 3.71552 3.71558 3.95514 3.71552 3.95508 3.95514 4.21016 3.71558 3.95514 3.95519 4.21022 3.95514 4.21016 4.21022 4.48169 2.7186 2.8939 2.89388 3.08048 2.8939 3.0805 3.08048 3.27912 2.89388 3.08048 3.08046 3.2791 3.08048 3.27912 3.2791 3.49055 2.71854 2.89385 2.8938 3.08042 2.89385 3.08046 3.08042 3.27906 2.8938 3.08042 3.08036 3.27901 3.08042 3.27906 3.27901 3.49048 3.08046 3.2791 3.27906 3.49052 3.2791 3.49055 3.49052 3.71561 3.27906 3.49052 3.49048 3.71558 3.49052 3.71561 3.71558 3.95519 3.08036 3.27901 3.27895 3.49042 3.27901 3.49048 3.49042 3.71552 3.27895 3.49042 3.49034 3.71545 3.49042 3.71552 3.71545 3.95508 3.49048 3.71558 3.71552 3.95514 3.71558 3.95519 3.95514 4.21022 3.71552 3.95514 3.95508 4.21016 3.95514 4.21022 4.21016 4.48169 2.71862 2.89391 2.89391 3.0805 2.89391 3.0805 3.0805 3.27913 2.89391 3.0805 3.0805 3.27913 3.0805 3.27913 3.27913 3.49057 3.0805 3.27912 3.27913 3.49057 3.27912 3.49055 3.49057 3.71564 3.27913 3.49057 3.49057 3.71565 3.49057 3.71564 3.71565 3.95523 3.0805 3.27913 3.27912 3.49057 3.27913 3.49057 3.49057 3.71565 3.27912 3.49057 3.49055 3.71564 3.49057 3.71565 3.71564 3.95523 3.49057 3.71565 3.71565 3.95524 3.71565 3.95523 3.95524 4.21028 3.71565 3.95524 3.95523 4.21028 3.95524 4.21028 4.21028 4.48176 3.49055 3.71561 3.71564 3.95522 3.71561 3.95519 3.95522 4.21026 3.71564 3.95522 3.95523 4.21027 3.95522 4.21026 4.21027 4.48176 3.95519 4.21022 4.21026 4.48174 4.21022 4.48169 4.48174 4.77073 4.21026 4.48174 4.48176 4.77077 4.48174 4.77073 4.77077 5.07842 3.95523 4.21027 4.21028 4.48176 4.21027 4.48176 4.48176 4.77076 4.21028 4.48176 4.48176 4.7708 4.48176 4.77076 4.7708 5.07833 4.48176 4.77077 4.77076 5.07842 4.77077 5.07842 5.07842 5.40595 4.77076 5.07842 5.07833 5.40587 5.07842 5.40595 5.40587 5.7546 3.49055 3.71564 3.71561 3.95522 3.71564 3.95523 3.95522 4.21027 3.71561 3.95522 3.95519 4.21026 3.95522 4.21027 4.21026 4.48176 3.95523 4.21028 4.21027 4.48176 4.21028 4.48176 4.48176 4.7708 4.21027 4.48176 4.48176 4.77076 4.48176 4.7708 4.77076 5.07833 3.95519 4.21026 4.21022 4.48174 4.21026 4.48176 4.48174 4.77077 4.21022 4.48174 4.48169 4.77073 4.48174 4.77077 4.77073 5.07842 4.48176 4.77076 4.77077 5.07842 4.77076 5.07833 5.07842 5.40587 4.77077 5.07842 5.07842 5.40595 5.07842 5.40587 5.40595 5.7546 4.48176 4.7708 4.7708 5.07826 4.7708 5.07833 5.07826 5.40635 4.7708 5.07826 5.07833 5.40635 5.40587 5.7546 5.75461 6.12574 5.75461 6.12574 6.1256 6.52082 5.40587 5.75461 5.7546 6.12574 5.75461 6.1256 6.12574 6.52082 6.52052 6.94138 6.94138 7.38906 1.28319 1.36892 1.36892 1.45552 1.36892 1.45464 1.45552 1.5494 1.36892 1.45552 1.45464 1.5494 1.45552 1.5494 1.5494 1.64915 1.2833 1.36885 1.36897 1.45554 1.36885 1.4544 1.45554 1.54964 1.36897 1.45554 1.45464 1.54943 1.45554 1.54964 1.54943 1.64916 1.4544 1.55156 1.54964 1.64918 1.55156 1.64872 1.64918 1.75505 1.54964 1.64918 1.64916 1.75533 1.64918 1.75505 1.75533 1.86825 1.45464 1.54943 1.5494 1.64905 1.54943 1.64916 1.64905 1.75538 1.5494 1.64905 1.64915 1.75541 1.64905 1.75538 1.75541 1.86849 1.64916 1.75533 1.75538 1.86843 1.75533 1.86825 1.86843 1.98874 1.75538 1.86843 1.86849 1.98887 1.86843 1.98874 1.98887 2.117 1.28318 1.36891 1.36892 1.45553 1.36891 1.45464 1.45553 1.54941 1.36892 1.45553 1.45466 1.54943 1.45553 1.54941 1.54943 1.64918 1.45464 1.5494 1.54941 1.64907 1.5494 1.64915 1.64907 1.75543 1.54941 1.64907 1.64918 1.75546 1.64907 1.75543 1.75546 1.86858 1.45466 1.54943 1.54944 1.64911 1.54943 1.64918 1.64911 1.75549 1.54944 1.64911 1.64922 1.75551 1.64911 1.75549 1.75551 1.86865 1.64918 1.75546 1.75549 1.86863 1.75546 1.86858 1.86863 1.98906 1.75549 1.86863 1.86865 1.9891 1.86863 1.98906 1.9891 2.11731 1.64915 1.75541 1.75543 1.86855 1.75541 1.86849 1.86855 1.98896 1.75543 1.86855 1.86858 1.98901 1.86855 1.98896 1.98901 2.1172 1.86849 1.98887 1.98896 2.11711 1.98887 2.117 2.11711 2.25353 1.98896 2.11711 2.1172 2.25364 2.11711 2.25353 2.25364 2.39888 1.86858 1.98901 1.98906 2.11726 1.98901 2.1172 2.11726 2.25372 1.98906 2.11726 2.11731 2.25378 2.11726 2.25372 2.25378 2.39905 2.1172 2.25364 2.25372 2.39897 2.25364 2.39888 2.39897 2.55359 2.25372 2.39897 2.39905 2.55368 2.39897 2.55359 2.55368 2.71828 1.28319 1.36892 1.36892 1.45552 1.36892 1.45464 1.45552 1.5494 1.36892 1.45552 1.45464 1.5494 1.45552 1.5494 1.5494 1.64915 1.28318 1.36892 1.36891 1.45553 1.36892 1.45466 1.45553 1.54943 1.36891 1.45553 1.45464 1.54941 1.45553 1.54943 1.54941 1.64918 1.45466 1.54944 1.54943 1.64911 1.54944 1.64922 1.64911 1.75551 1.54943 1.64911 1.64918 1.75549 1.64911 1.75551 1.75549 1.86865 1.45464 1.54941 1.5494 1.64907 1.54941 1.64918 1.64907 1.75546 1.5494 1.64907 1.64915 1.75543 1.64907 1.75546 1.75543 1.86858 1.64918 1.75549 1.75546 1.86863 1.75549 1.86865 1.86863 1.9891 1.75546 1.86863 1.86858 1.98906 1.86863 1.9891 1.98906 2.11731 1.2833 1.36897 1.36885 1.45554 1.36897 1.45464 1.45554 1.54943 1.36885 1.45554 1.4544 1.54964 1.45554 1.54943 1.54964 1.64916 1.45464 1.5494 1.54943 1.64905 1.5494 1.64915 1.64905 1.75541 1.54943 1.64905 1.64916 1.75538 1.64905 1.75541 1.75538 1.86849 1.4544 1.54964 1.55156 1.64918 1.54964 1.64916 1.64918 1.75533 1.55156 1.64918 1.64872 1.75505 1.64918 1.75533 1.75505 1.86825 1.64916 1.75538 1.75533 1.86843 1.75538 1.86849 1.86843 1.98887 1.75533 1.86843 1.86825 1.98874 1.86843 1.98887 1.98874 2.117 1.64915 1.75543 1.75541 1.86855 1.75543 1.86858 1.86855 1.98901 1.75541 1.86855 1.86849 1.98896 1.86855 1.98901 1.98896 2.1172 1.86858 1.98906 1.98901 2.11726 1.98906 2.11731 2.11726 2.25378 1.98901 2.11726 2.1172 2.25372 2.11726 2.25378 2.25372 2.39905 1.86849 1.98896 1.98887 2.11711 1.98896 2.1172 2.11711 2.25364 1.98887 2.11711 2.117 2.25353 2.11711 2.25364 2.25353 2.39888 2.1172 2.25372 2.25364 2.39897 2.25372 2.39905 2.39897 2.55368 2.25364 2.39897 2.39888 2.55359 2.39897 2.55368 2.55359 2.71828 1.2832 1.36894 1.36895 1.45557 1.36894 1.45468 1.45557 1.54947 1.36895 1.45557 1.45469 1.54947 1.45557 1.54947 1.54947 1.64925 1.45468 1.54946 1.54947 1.64915 1.54946 1.64922 1.64915 1.75553 1.54947 1.64915 1.64925 1.75555 1.64915 1.75553 1.75555 1.86869 1.45469 1.54947 1.54948 1.64916 1.54947 1.64925 1.64916 1.75556 1.54948 1.64916 1.64926 1.75556 1.64916 1.75556 1.75556 1.86872 1.64925 1.75555 1.75556 1.86872 1.75555 1.86869 1.86872 1.98918 1.75556 1.86872 1.86872 1.98919 1.86872 1.98918 1.98919 2.11742 1.2832 1.36895 1.36894 1.45557 1.36895 1.45469 1.45557 1.54947 1.36894 1.45557 1.45468 1.54947 1.45557 1.54947 1.54947 1.64925 1.45469 1.54948 1.54947 1.64916 1.54948 1.64926 1.64916 1.75556 1.54947 1.64916 1.64925 1.75556 1.64916 1.75556 1.75556 1.86872 1.45468 1.54947 1.54946 1.64915 1.54947 1.64925 1.64915 1.75555 1.54946 1.64915 1.64922 1.75553 1.64915 1.75555 1.75553 1.86869 1.64925 1.75556 1.75555 1.86872 1.75556 1.86872 1.86872 1.98919 1.75555 1.86872 1.86869 1.98918 1.86872 1.98919 1.98918 2.11742 1.64926 1.75556 1.75556 1.86873 1.75556 1.86872 1.86873 1.9892 1.75556 1.86873 1.86872 1.9892 1.86873 1.9892 1.9892 2.11744 1.86872 1.98919 1.9892 2.11743 1.98919 2.11742 2.11743 2.25394 1.9892 2.11743 2.11744 2.25395 2.11743 2.25394 2.25395 2.39926 1.86872 1.9892 1.98919 2.11743 1.9892 2.11744 2.11743 2.25395 1.98919 2.11743 2.11742 2.25394 2.11743 2.25395 2.25394 2.39926 2.11744 2.25395 2.25395 2.39927 2.25395 2.39926 2.39927 2.55396 2.25395 2.39927 2.39926 2.55396 2.39927 2.55396 2.55396 2.71862 1.64922 1.75551 1.75553 1.86868 1.75551 1.86865 1.86868 1.98913 1.75553 1.86868 1.86869 1.98916 1.86868 1.98913 1.98916 2.11738 1.86865 1.9891 1.98913 2.11735 1.9891 2.11731 2.11735 2.25383 1.98913 2.11735 2.11738 2.25387 2.11735 2.25383 2.25387 2.39916 1.86869 1.98916 1.98918 2.11741 1.98916 2.11738 2.11741 2.2539 1.98918 2.11741 2.11742 2.25393 2.11741 2.2539 2.25393 2.39923 2.11738 2.25387 2.2539 2.3992 2.25387 2.39916 2.3992 2.55386 2.2539 2.3992 2.39923 2.5539 2.3992 2.55386 2.5539 2.71854 2.11731 2.25378 2.25383 2.39911 2.25378 2.39905 2.39911 2.55375 2.25383 2.39911 2.39916 2.55381 2.39911 2.55375 2.55381 2.71844 2.39905 2.55368 2.55375 2.71837 2.55368 2.71828 2.71837 2.8936 2.55375 2.71837 2.71844 2.89368 2.71837 2.8936 2.89368 3.08022 2.39916 2.55381 2.55386 2.7185 2.55381 2.71844 2.7185 2.89375 2.55386 2.7185 2.71854 2.8938 2.7185 2.89375 2.8938 3.08036 2.71844 2.89368 2.89375 3.0803 2.89368 3.08022 3.0803 3.27887 2.89375 3.0803 3.08036 3.27895 3.0803 3.27887 3.27895 3.49034 2.11742 2.25393 2.25394 2.39925 2.25393 2.39923 2.39925 2.55393 2.25394 2.39925 2.39926 2.55395 2.39925 2.55393 2.55395 2.7186 2.39923 2.5539 2.55393 2.71858 2.5539 2.71854 2.71858 2.89385 2.55393 2.71858 2.7186 2.89388 2.71858 2.89385 2.89388 3.08046 2.39926 2.55395 2.55396 2.71862 2.55395 2.7186 2.71862 2.8939 2.55396 2.71862 2.71862 2.89391 2.71862 2.8939 2.89391 3.0805 1.64922 1.75553 1.75551 1.86868 1.75553 1.86869 1.86868 1.98916 1.75551 1.86868 1.86865 1.98913 1.86868 1.98916 1.98913 2.11738 1.86869 1.98918 1.98916 2.11741 1.98918 2.11742 2.11741 2.25393 1.98916 2.11741 2.11738 2.2539 2.11741 2.25393 2.2539 2.39923 1.86865 1.98913 1.9891 2.11735 1.98913 2.11738 2.11735 2.25387 1.9891 2.11735 2.11731 2.25383 2.11735 2.25387 2.25383 2.39916 2.11738 2.2539 2.25387 2.3992 2.2539 2.39923 2.3992 2.5539 2.25387 2.3992 2.39916 2.55386 2.3992 2.5539 2.55386 2.71854 2.11742 2.25394 2.25393 2.39925 2.25394 2.39926 2.39925 2.55395 2.25393 2.39925 2.39923 2.55393 2.39925 2.55395 2.55393 2.7186 2.39926 2.55396 2.55395 2.71862 2.55396 2.71862 2.71862 2.89391 2.55395 2.71862 2.7186 2.8939 2.71862 2.89391 2.8939 3.0805 2.39923 2.55393 2.5539 2.71858 2.55393 2.7186 2.71858 2.89388 2.5539 2.71858 2.71854 2.89385 2.71858 2.89388 2.89385 3.08046 2.11731 2.25383 2.25378 2.39911 2.25383 2.39916 2.39911 2.55381 2.25378 2.39911 2.39905 2.55375 2.39911 2.55381 2.55375 2.71844 2.39916 2.55386 2.55381 2.7185 2.55386 2.71854 2.7185 2.8938 2.55381 2.7185 2.71844 2.89375 2.7185 2.8938 2.89375 3.08036 2.39905 2.55375 2.55368 2.71837 2.55375 2.71844 2.71837 2.89368 2.55368 2.71837 2.71828 2.8936 2.71837 2.89368 2.8936 3.08022 2.71844 2.89375 2.89368 3.0803 2.89375 3.08036 3.0803 3.27895 2.89368 3.0803 3.08022 3.27887 3.0803 3.27895 3.27887 3.49034 1.28319 1.36892 1.36893 1.45555 1.36892 1.45466 1.45555 1.54944 1.36893 1.45555 1.45468 1.54946 1.45555 1.54944 1.54946 1.64922 1.28319 1.36893 1.36892 1.45555 1.36893 1.45468 1.45555 1.54946 1.36892 1.45555 1.45466 1.54944 1.45555 1.54946 1.54944 1.64922 1.28321 1.36895 1.36895 1.45557 1.36895 1.45469 1.45557 1.54948 1.36895 1.45557 1.45469 1.54948 1.45557 1.54948 1.54948 1.64926 5.07826 5.2423 5.2423 5.40716 5.2423 5.40635 5.40716 5.57885 5.2423 5.40716 5.40635 5.57885 5.40716 5.57885 5.57885 5.7557 5.07833 5.2421 5.24234 5.40715 5.2421 5.40587 5.40715 5.58024 5.24234 5.40715 5.40635 5.57907 5.40715 5.58024 5.57907 5.75461 5.40635 5.57907 5.57885 5.75562 5.57907 5.75461 5.75562 5.9401 5.57885 5.75562 5.7557 5.93841 5.75562 5.9401 5.93841 6.1256 5.07833 5.24234 5.2421 5.40715 5.24234 5.40635 5.40715 5.57907 5.2421 5.40715 5.40587 5.58024 5.40715 5.57907 5.58024 5.75461 5.40635 5.57885 5.57907 5.75562 5.57885 5.7557 5.75562 5.93841 5.57907 5.75562 5.75461 5.9401 5.75562 5.93841 5.9401 6.1256 5.7557 5.93841 5.93841 6.12639 5.93841 6.1256 6.12639 6.32139 5.93841 6.12639 6.1256 6.32139 6.12639 6.32139 6.32139 6.52052 6.1256 6.32321 6.32139 6.52168 6.32321 6.52082 6.52168 6.72781 6.32139 6.52168 6.52052 6.73095 6.52168 6.72781 6.73095 6.94138 6.1256 6.32139 6.32321 6.52168 6.32139 6.52052 6.52168 6.73095 6.32321 6.52168 6.52082 6.72781 6.52168 6.73095 6.72781 6.94138 
SCALARS L2_error double 1
LOOKUP_TABLE default