# vtk DataFile Version 3.0
Triangulation generated with deal.II
ASCII
DATASET UNSTRUCTURED_GRID
POINTS 60 double
2 0 0
1.80902 0.587785 0
1.30902 0.951057 0
0.690983 0.951057 0
0.190983 0.587785 0
0 1.22465e-16 0
0.190983 -0.587785 0
0.690983 -0.951057 0
1.30902 -0.951057 0
1.80902 -0.587785 0
1.5 0 0
1.40451 0.293893 0
1.15451 0.475528 0
0.845492 0.475528 0
0.595492 0.293893 0
0.5 6.12323e-17 0
0.595492 -0.293893 0
0.845492 -0.475528 0
1.15451 -0.475528 0
1.40451 -0.293893 0
1.90451 0.293893 0
1.75 0 0
1.55902 0.769421 0
1.60676 0.440839 0
1 0.951057 0
1.23176 0.713292 0
0.440983 0.769421 0
0.768237 0.713292 0
0.0954915 0.293893 0
0.393237 0.440839 0
0.0954915 -0.293893 0
0.25 9.18485e-17 0
0.440983 -0.769421 0
0.393237 -0.440839 0
1 -0.951057 0
0.768237 -0.713292 0
1.55902 -0.769421 0
1.23176 -0.713292 0
1.90451 -0.293893 0
1.60676 -0.440839 0
1.47553 0.154508 0
1.29389 0.404508 0
1 0.5 0
0.706107 0.404508 0
0.524472 0.154508 0
0.547746 -0.146946 0
0.720492 -0.38471 0
1 -0.475528 0
1.27951 -0.38471 0
1.45225 -0.146946 0
1.69002 0.224201 0
1.42645 0.586965 0
1 0.725528 0
0.573545 0.586965 0
0.309982 0.224201 0
0.321619 -0.220419 0
0.580737 -0.577066 0
1 -0.713292 0
1.41926 -0.577066 0
1.67838 -0.220419 0

CELLS 140 500
4 0 20 50 21
4 20 1 23 50
4 21 50 40 10
4 50 23 11 40
4 1 22 51 23
4 22 2 25 51
4 23 51 41 11
4 51 25 12 41
4 2 24 52 25
4 24 3 27 52
4 25 52 42 12
4 52 27 13 42
4 3 26 53 27
4 26 4 29 53
4 27 53 43 13
4 53 29 14 43
4 4 28 54 29
4 28 5 31 54
4 29 54 44 14
4 54 31 15 44
4 5 30 55 31
4 30 6 33 55
4 31 55 45 15
4 55 33 16 45
4 6 32 56 33
4 32 7 35 56
4 33 56 46 16
4 56 35 17 46
4 7 34 57 35
4 34 8 37 57
4 35 57 47 17
4 57 37 18 47
4 8 36 58 37
4 36 9 39 58
4 37 58 48 18
4 58 39 19 48
4 9 38 59 39
4 38 0 21 59
4 39 59 49 19
4 59 21 10 49
2 0 20
2 20 1
2 0 21
2 21 10
2 1 22
2 22 2
2 1 23
2 23 11
2 2 24
2 24 3
2 2 25
2 25 12
2 3 26
2 26 4
2 3 27
2 27 13
2 4 28
2 28 5
2 4 29
2 29 14
2 5 30
2 30 6
2 5 31
2 31 15
2 6 32
2 32 7
2 6 33
2 33 16
2 7 34
2 34 8
2 7 35
2 35 17
2 8 36
2 36 9
2 8 37
2 37 18
2 9 38
2 38 0
2 9 39
2 39 19
2 10 40
2 40 11
2 11 41
2 41 12
2 12 42
2 42 13
2 13 43
2 43 14
2 14 44
2 44 15
2 15 45
2 45 16
2 16 46
2 46 17
2 17 47
2 47 18
2 18 48
2 48 19
2 19 49
2 49 10
2 20 50
2 50 40
2 21 50
2 50 23
2 22 51
2 51 41
2 23 51
2 51 25
2 24 52
2 52 42
2 25 52
2 52 27
2 26 53
2 53 43
2 27 53
2 53 29
2 28 54
2 54 44
2 29 54
2 54 31
2 30 55
2 55 45
2 31 55
2 55 33
2 32 56
2 56 46
2 33 56
2 56 35
2 34 57
2 57 47
2 35 57
2 57 37
2 36 58
2 58 48
2 37 58
2 58 39
2 38 59
2 59 49
2 39 59
2 59 21

CELL_TYPES 140
9 9 9 9 9 9 9 9 9 9 9 9 9 9 9 9 9 9 9 9 9 9 9 9 9 9 9 9 9 9 9 9 9 9 9 9 9 9 9 9 
3 3 3 3 3 3 3 3 3 3 3 3 3 3 3 3 3 3 3 3 3 3 3 3 3 3 3 3 3 3 3 3 3 3 3 3 3 3 3 3 3 3 3 3 3 3 3 3 3 3 3 3 3 3 3 3 3 3 3 3 3 3 3 3 3 3 3 3 3 3 3 3 3 3 3 3 3 3 3 3 3 3 3 3 3 3 3 3 3 3 3 3 3 3 3 3 3 3 3 3 


CELL_DATA 140
SCALARS MaterialID int 1
LOOKUP_TABLE default
0 0 0 0 0 0 0 0 0 0 0 0 0 0 0 0 0 0 0 0 0 0 0 0 0 0 0 0 0 0 0 0 0 0 0 0 0 0 0 0 
1 1 -1 -1 1 1 -1 -1 1 1 -1 -1 1 1 -1 -1 1 1 -1 -1 1 1 -1 -1 1 1 -1 -1 1 1 -1 -1 1 1 -1 -1 1 1 -1 -1 0 0 0 0 0 0 0 0 0 0 0 0 0 0 0 0 0 0 0 0 -1 -1 -1 -1 -1 -1 -1 -1 -1 -1 -1 -1 -1 -1 -1 -1 -1 -1 -1 -1 -1 -1 -1 -1 -1 -1 -1 -1 -1 -1 -1 -1 -1 -1 -1 -1 -1 -1 -1 -1 


SCALARS ManifoldID int 1
LOOKUP_TABLE default
0 0 0 0 0 0 0 0 0 0 0 0 0 0 0 0 0 0 0 0 0 0 0 0 0 0 0 0 0 0 0 0 0 0 0 0 0 0 0 0 
0 0 0 0 0 0 0 0 0 0 0 0 0 0 0 0 0 0 0 0 0 0 0 0 0 0 0 0 0 0 0 0 0 0 0 0 0 0 0 0 100 100 100 100 100 100 100 100 100 100 0 0 0 0 0 0 0 0 0 0 0 0 0 0 0 0 0 0 0 0 0 0 0 0 0 0 0 0 0 0 0 0 0 0 0 0 0 0 0 0 0 0 0 0 0 0 0 0 0 0 

