# vtk DataFile Version 3.0
Triangulation generated with deal.II
ASCII
DATASET UNSTRUCTURED_GRID
POINTS 1300 double
-1 -1 0
0 -1 0
1 -1 0
-1 0 0
0 0 0
1 0 0
-1 1 0
0 1 0
-0.5 -1 0
-1 -0.5 0
0.5 -1 0
0 -0.5 0
1 -0.5 0
-0.5 0 0
-1 0.5 0
0.5 0 0
0 0.5 0
-0.5 1 0
-0.5 -0.5 0
0.5 -0.5 0
-0.5 0.5 0
0 -0.25 0
-0.25 0 0
0.25 0 0
0 0.25 0
-0.5 -0.25 0
-0.25 -0.5 0
0.5 -0.25 0
0.25 -0.5 0
-0.5 0.25 0
-0.25 0.5 0
-0.25 -0.25 0
0.25 -0.25 0
-0.25 0.25 0
-0.25 -1 0
-1 -0.25 0
0.25 -1 0
0 -0.75 0
1 -0.25 0
-0.75 0 0
-1 0.25 0
0.75 0 0
0 0.75 0
-0.25 1 0
-0.5 -0.75 0
-0.75 -0.5 0
0.5 -0.75 0
0.75 -0.5 0
-0.5 0.75 0
-0.75 0.5 0
0 -0.375 0
0 -0.125 0
-0.375 0 0
-0.125 0 0
0.125 0 0
0.375 0 0
0 0.125 0
0 0.375 0
-0.5 -0.125 0
-0.125 -0.5 0
0.5 -0.125 0
0.125 -0.5 0
-0.5 0.125 0
-0.125 0.5 0
-0.25 -0.375 0
-0.25 -0.125 0
-0.375 -0.25 0
-0.125 -0.25 0
0.25 -0.375 0
0.25 -0.125 0
0.125 -0.25 0
0.375 -0.25 0
-0.25 0.125 0
-0.25 0.375 0
-0.375 0.25 0
-0.125 0.25 0
-0.25 -0.75 0
-0.75 -0.25 0
0.25 -0.75 0
0.75 -0.25 0
-0.75 0.25 0
-0.25 0.75 0
-0.125 -0.375 0
-0.375 -0.125 0
-0.125 -0.125 0
0.125 -0.375 0
0.125 -0.125 0
0.375 -0.125 0
-0.375 0.125 0
-0.125 0.125 0
-0.125 0.375 0
-0.5 -0.375 0
-0.375 -0.5 0
0.5 -0.375 0
0.375 -0.5 0
-0.5 0.375 0
-0.375 0.5 0
0 -0.3125 0
0 -0.1875 0
0 -0.0625 0
-0.3125 0 0
-0.1875 0 0
-0.0625 0 0
0.0625 0 0
0.1875 0 0
0.3125 0 0
0 0.0625 0
0 0.1875 0
0 0.3125 0
-0.25 -0.3125 0
-0.25 -0.1875 0
-0.25 -0.0625 0
-0.3125 -0.25 0
-0.1875 -0.25 0
-0.0625 -0.25 0
0.25 -0.3125 0
0.25 -0.1875 0
0.25 -0.0625 0
0.0625 -0.25 0
0.1875 -0.25 0
0.3125 -0.25 0
-0.25 0.0625 0
-0.25 0.1875 0
-0.25 0.3125 0
-0.3125 0.25 0
-0.1875 0.25 0
-0.0625 0.25 0
-0.125 -0.3125 0
-0.1875 -0.375 0
-0.0625 -0.375 0
-0.375 -0.1875 0
-0.375 -0.0625 0
-0.3125 -0.125 0
-0.125 -0.1875 0
-0.125 -0.0625 0
-0.1875 -0.125 0
-0.0625 -0.125 0
0.125 -0.3125 0
0.0625 -0.375 0
0.1875 -0.375 0
0.125 -0.1875 0
0.125 -0.0625 0
0.0625 -0.125 0
0.1875 -0.125 0
0.375 -0.1875 0
0.375 -0.0625 0
0.3125 -0.125 0
-0.375 0.0625 0
-0.375 0.1875 0
-0.3125 0.125 0
-0.125 0.0625 0
-0.125 0.1875 0
-0.1875 0.125 0
-0.0625 0.125 0
-0.125 0.3125 0
-0.1875 0.375 0
-0.0625 0.375 0
-0.375 -0.375 0
0.375 -0.375 0
-0.375 0.375 0
-0.1875 -0.3125 0
-0.0625 -0.3125 0
-0.3125 -0.1875 0
-0.3125 -0.0625 0
-0.1875 -0.1875 0
-0.0625 -0.1875 0
-0.1875 -0.0625 0
-0.0625 -0.0625 0
0.0625 -0.3125 0
0.1875 -0.3125 0
0.0625 -0.1875 0
0.1875 -0.1875 0
0.0625 -0.0625 0
0.1875 -0.0625 0
0.3125 -0.1875 0
0.3125 -0.0625 0
-0.3125 0.0625 0
-0.3125 0.1875 0
-0.1875 0.0625 0
-0.0625 0.0625 0
-0.1875 0.1875 0
-0.0625 0.1875 0
-0.1875 0.3125 0
-0.0625 0.3125 0
0 -0.28125 0
0 -0.21875 0
0 -0.15625 0
0 -0.09375 0
0 -0.03125 0
-0.28125 0 0
-0.21875 0 0
-0.15625 0 0
-0.09375 0 0
-0.03125 0 0
0.03125 0 0
0.09375 0 0
0.15625 0 0
0.21875 0 0
0.28125 0 0
0 0.03125 0
0 0.09375 0
0 0.15625 0
0 0.21875 0
0 0.28125 0
-0.25 -0.21875 0
-0.25 -0.15625 0
-0.25 -0.09375 0
-0.25 -0.03125 0
-0.21875 -0.25 0
-0.15625 -0.25 0
-0.09375 -0.25 0
-0.03125 -0.25 0
0.25 -0.21875 0
0.25 -0.15625 0
0.25 -0.09375 0
0.25 -0.03125 0
0.03125 -0.25 0
0.09375 -0.25 0
0.15625 -0.25 0
0.21875 -0.25 0
-0.25 0.03125 0
-0.25 0.09375 0
-0.25 0.15625 0
-0.25 0.21875 0
-0.21875 0.25 0
-0.15625 0.25 0
-0.09375 0.25 0
-0.03125 0.25 0
-0.125 -0.28125 0
-0.28125 -0.125 0
-0.125 -0.21875 0
-0.125 -0.15625 0
-0.125 -0.09375 0
-0.125 -0.03125 0
-0.21875 -0.125 0
-0.15625 -0.125 0
-0.09375 -0.125 0
-0.03125 -0.125 0
0.125 -0.28125 0
0.125 -0.21875 0
0.125 -0.15625 0
0.125 -0.09375 0
0.125 -0.03125 0
0.03125 -0.125 0
0.09375 -0.125 0
0.15625 -0.125 0
0.21875 -0.125 0
0.28125 -0.125 0
-0.28125 0.125 0
-0.125 0.03125 0
-0.125 0.09375 0
-0.125 0.15625 0
-0.125 0.21875 0
-0.21875 0.125 0
-0.15625 0.125 0
-0.09375 0.125 0
-0.03125 0.125 0
-0.125 0.28125 0
-0.1875 -0.28125 0
-0.15625 -0.3125 0
-0.0625 -0.28125 0
-0.09375 -0.3125 0
-0.03125 -0.3125 0
-0.3125 -0.15625 0
-0.28125 -0.1875 0
-0.3125 -0.09375 0
-0.3125 -0.03125 0
-0.28125 -0.0625 0
-0.1875 -0.21875 0
-0.1875 -0.15625 0
-0.21875 -0.1875 0
-0.15625 -0.1875 0
-0.0625 -0.21875 0
-0.0625 -0.15625 0
-0.09375 -0.1875 0
-0.03125 -0.1875 0
-0.1875 -0.09375 0
-0.1875 -0.03125 0
-0.21875 -0.0625 0
-0.15625 -0.0625 0
-0.0625 -0.09375 0
-0.0625 -0.03125 0
-0.09375 -0.0625 0
-0.03125 -0.0625 0
0.0625 -0.28125 0
0.03125 -0.3125 0
0.09375 -0.3125 0
0.1875 -0.28125 0
0.15625 -0.3125 0
0.0625 -0.21875 0
0.0625 -0.15625 0
0.03125 -0.1875 0
0.09375 -0.1875 0
0.1875 -0.21875 0
0.1875 -0.15625 0
0.15625 -0.1875 0
0.21875 -0.1875 0
0.0625 -0.09375 0
0.0625 -0.03125 0
0.03125 -0.0625 0
0.09375 -0.0625 0
0.1875 -0.09375 0
0.1875 -0.03125 0
0.15625 -0.0625 0
0.21875 -0.0625 0
0.3125 -0.15625 0
0.28125 -0.1875 0
0.3125 -0.09375 0
0.3125 -0.03125 0
0.28125 -0.0625 0
-0.3125 0.03125 0
-0.3125 0.09375 0
-0.28125 0.0625 0
-0.3125 0.15625 0
-0.28125 0.1875 0
-0.1875 0.03125 0
-0.1875 0.09375 0
-0.21875 0.0625 0
-0.15625 0.0625 0
-0.0625 0.03125 0
-0.0625 0.09375 0
-0.09375 0.0625 0
-0.03125 0.0625 0
-0.1875 0.15625 0
-0.1875 0.21875 0
-0.21875 0.1875 0
-0.15625 0.1875 0
-0.0625 0.15625 0
-0.0625 0.21875 0
-0.09375 0.1875 0
-0.03125 0.1875 0
-0.1875 0.28125 0
-0.15625 0.3125 0
-0.0625 0.28125 0
-0.09375 0.3125 0
-0.03125 0.3125 0
-0.15625 -0.28125 0
-0.09375 -0.28125 0
-0.03125 -0.28125 0
-0.28125 -0.15625 0
-0.28125 -0.09375 0
-0.28125 -0.03125 0
-0.21875 -0.21875 0
-0.15625 -0.21875 0
-0.21875 -0.15625 0
-0.15625 -0.15625 0
-0.09375 -0.21875 0
-0.03125 -0.21875 0
-0.09375 -0.15625 0
-0.03125 -0.15625 0
-0.21875 -0.09375 0
-0.15625 -0.09375 0
-0.21875 -0.03125 0
-0.15625 -0.03125 0
-0.09375 -0.09375 0
-0.03125 -0.09375 0
-0.09375 -0.03125 0
-0.03125 -0.03125 0
0.03125 -0.28125 0
0.09375 -0.28125 0
0.15625 -0.28125 0
0.03125 -0.21875 0
0.09375 -0.21875 0
0.03125 -0.15625 0
0.09375 -0.15625 0
0.15625 -0.21875 0
0.21875 -0.21875 0
0.15625 -0.15625 0
0.21875 -0.15625 0
0.03125 -0.09375 0
0.09375 -0.09375 0
0.03125 -0.03125 0
0.09375 -0.03125 0
0.15625 -0.09375 0
0.21875 -0.09375 0
0.15625 -0.03125 0
0.21875 -0.03125 0
0.28125 -0.15625 0
0.28125 -0.09375 0
0.28125 -0.03125 0
-0.28125 0.03125 0
-0.28125 0.09375 0
-0.28125 0.15625 0
-0.21875 0.03125 0
-0.15625 0.03125 0
-0.21875 0.09375 0
-0.15625 0.09375 0
-0.09375 0.03125 0
-0.03125 0.03125 0
-0.09375 0.09375 0
-0.03125 0.09375 0
-0.21875 0.15625 0
-0.15625 0.15625 0
-0.21875 0.21875 0
-0.15625 0.21875 0
-0.09375 0.15625 0
-0.03125 0.15625 0
-0.09375 0.21875 0
-0.03125 0.21875 0
-0.15625 0.28125 0
-0.09375 0.28125 0
-0.03125 0.28125 0
0 -0.625 0
-0.625 0 0
0.625 0 0
0 0.625 0
0 -0.4375 0
-0.4375 0 0
0.4375 0 0
0 0.4375 0
-0.5 -0.0625 0
-0.0625 -0.5 0
0.5 -0.0625 0
0.0625 -0.5 0
-0.5 0.0625 0
-0.0625 0.5 0
-0.25 -0.625 0
-0.125 -0.75 0
-0.75 -0.125 0
-0.625 -0.25 0
0.25 -0.625 0
0.125 -0.75 0
0.75 -0.125 0
0.625 -0.25 0
-0.75 0.125 0
-0.625 0.25 0
-0.25 0.625 0
-0.125 0.75 0
-0.125 -0.4375 0
-0.4375 -0.125 0
0.125 -0.4375 0
0.4375 -0.125 0
-0.4375 0.125 0
-0.125 0.4375 0
0 -0.34375 0
-0.34375 0 0
0.34375 0 0
0 0.34375 0
-0.25 -0.28125 0
-0.28125 -0.25 0
0.25 -0.28125 0
0.28125 -0.25 0
-0.25 0.28125 0
-0.28125 0.25 0
-0.125 -0.34375 0
-0.09375 -0.375 0
-0.03125 -0.375 0
-0.375 -0.09375 0
-0.375 -0.03125 0
-0.34375 -0.125 0
0.125 -0.34375 0
0.03125 -0.375 0
0.09375 -0.375 0
0.375 -0.09375 0
0.375 -0.03125 0
0.34375 -0.125 0
-0.375 0.03125 0
-0.375 0.09375 0
-0.34375 0.125 0
-0.125 0.34375 0
-0.09375 0.375 0
-0.03125 0.375 0
-0.375 -0.3125 0
-0.3125 -0.375 0
0.375 -0.3125 0
0.3125 -0.375 0
-0.375 0.3125 0
-0.3125 0.375 0
-0.21875 -0.3125 0
-0.0625 -0.34375 0
-0.3125 -0.21875 0
-0.34375 -0.0625 0
0.0625 -0.34375 0
0.21875 -0.3125 0
0.3125 -0.21875 0
0.34375 -0.0625 0
-0.34375 0.0625 0
-0.3125 0.21875 0
-0.21875 0.3125 0
-0.0625 0.34375 0
0 -0.296875 0
0 -0.265625 0
0 -0.234375 0
0 -0.203125 0
0 -0.171875 0
0 -0.140625 0
0 -0.109375 0
0 -0.078125 0
0 -0.046875 0
0 -0.015625 0
-0.296875 0 0
-0.265625 0 0
-0.234375 0 0
-0.203125 0 0
-0.171875 0 0
-0.140625 0 0
-0.109375 0 0
-0.078125 0 0
-0.046875 0 0
-0.015625 0 0
0.015625 0 0
0.046875 0 0
0.078125 0 0
0.109375 0 0
0.140625 0 0
0.171875 0 0
0.203125 0 0
0.234375 0 0
0.265625 0 0
0.296875 0 0
0 0.015625 0
0 0.046875 0
0 0.078125 0
0 0.109375 0
0 0.140625 0
0 0.171875 0
0 0.203125 0
0 0.234375 0
0 0.265625 0
0 0.296875 0
-0.25 -0.203125 0
-0.25 -0.171875 0
-0.25 -0.140625 0
-0.25 -0.109375 0
-0.25 -0.078125 0
-0.25 -0.046875 0
-0.25 -0.015625 0
-0.203125 -0.25 0
-0.171875 -0.25 0
-0.140625 -0.25 0
-0.109375 -0.25 0
-0.078125 -0.25 0
-0.046875 -0.25 0
-0.015625 -0.25 0
0.25 -0.203125 0
0.25 -0.171875 0
0.25 -0.140625 0
0.25 -0.109375 0
0.25 -0.078125 0
0.25 -0.046875 0
0.25 -0.015625 0
0.015625 -0.25 0
0.046875 -0.25 0
0.078125 -0.25 0
0.109375 -0.25 0
0.140625 -0.25 0
0.171875 -0.25 0
0.203125 -0.25 0
-0.25 0.015625 0
-0.25 0.046875 0
-0.25 0.078125 0
-0.25 0.109375 0
-0.25 0.140625 0
-0.25 0.171875 0
-0.25 0.203125 0
-0.203125 0.25 0
-0.171875 0.25 0
-0.140625 0.25 0
-0.109375 0.25 0
-0.078125 0.25 0
-0.046875 0.25 0
-0.015625 0.25 0
-0.125 -0.296875 0
-0.125 -0.265625 0
-0.296875 -0.125 0
-0.265625 -0.125 0
-0.125 -0.234375 0
-0.125 -0.203125 0
-0.125 -0.171875 0
-0.125 -0.140625 0
-0.125 -0.109375 0
-0.125 -0.078125 0
-0.125 -0.046875 0
-0.125 -0.015625 0
-0.234375 -0.125 0
-0.203125 -0.125 0
-0.171875 -0.125 0
-0.140625 -0.125 0
-0.109375 -0.125 0
-0.078125 -0.125 0
-0.046875 -0.125 0
-0.015625 -0.125 0
0.125 -0.296875 0
0.125 -0.265625 0
0.125 -0.234375 0
0.125 -0.203125 0
0.125 -0.171875 0
0.125 -0.140625 0
0.125 -0.109375 0
0.125 -0.078125 0
0.125 -0.046875 0
0.125 -0.015625 0
0.015625 -0.125 0
0.046875 -0.125 0
0.078125 -0.125 0
0.109375 -0.125 0
0.140625 -0.125 0
0.171875 -0.125 0
0.203125 -0.125 0
0.234375 -0.125 0
0.265625 -0.125 0
0.296875 -0.125 0
-0.296875 0.125 0
-0.265625 0.125 0
-0.125 0.015625 0
-0.125 0.046875 0
-0.125 0.078125 0
-0.125 0.109375 0
-0.125 0.140625 0
-0.125 0.171875 0
-0.125 0.203125 0
-0.125 0.234375 0
-0.234375 0.125 0
-0.203125 0.125 0
-0.171875 0.125 0
-0.140625 0.125 0
-0.109375 0.125 0
[...]
CELL_DATA 1257
SCALARS MaterialID int 1
LOOKUP_TABLE default
0 0 0 0 0 0 0 0 0 0 0 0 0 0 0 0 0 0 0 0 0 0 0 0 0 0 0 0 0 0 0 0 0 0 0 0 0 0 0 0 0 0 0 0 0 0 0 0 0 0 0 0 0 0 0 0 0 0 0 0 0 0 0 0 0 0 0 0 0 0 0 0 0 0 0 0 0 0 0 0 0 0 0 0 0 0 0 0 0 0 0 0 0 0 0 0 0 0 0 0 0 0 0 0 0 0 0 0 0 0 0 0 0 0 0 0 0 0 0 0 0 0 0 0 0 0 0 0 0 0 0 0 0 0 0 0 0 0 0 0 0 0 0 0 0 0 0 0 0 0 0 0 0 0 0 0 0 0 0 0 0 0 0 0 0 0 0 0 0 0 0 0 0 0 0 0 0 0 0 0 0 0 0 0 0 0 0 0 0 0 0 0 0 0 0 0 0 0 0 0 0 0 0 0 0 0 0 0 0 0 0 0 0 0 0 0 0 0 0 0 0 0 0 0 0 0 0 0 0 0 0 0 0 0 0 0 0 0 0 0 0 0 0 0 0 0 0 0 0 0 0 0 0 0 0 0 0 0 0 0 0 0 0 0 0 0 0 0 0 0 0 0 0 0 0 0 0 0 0 0 0 0 0 0 0 0 0 0 0 0 0 0 0 0 0 0 0 0 0 0 0 0 0 0 0 0 0 0 0 0 0 0 0 0 0 0 0 0 0 0 0 0 0 0 0 0 0 0 0 0 0 0 0 0 0 0 0 0 0 0 0 0 0 0 0 0 0 0 0 0 0 0 0 0 0 0 0 0 0 0 0 0 0 0 0 0 0 0 0 0 0 0 0 0 0 0 0 0 0 0 0 0 0 0 0 0 0 0 0 0 0 0 0 0 0 0 0 0 0 0 0 0 0 0 0 0 0 0 0 0 0 0 0 0 0 0 0 0 0 0 0 0 0 0 0 0 0 0 0 0 0 0 0 0 0 0 0 0 0 0 0 0 0 0 0 0 0 0 0 0 0 0 0 0 0 0 0 0 0 0 0 0 0 0 0 0 0 0 0 0 0 0 0 0 0 0 0 0 0 0 0 0 0 0 0 0 0 0 0 0 0 0 0 0 0 0 0 0 0 0 0 0 0 0 0 0 0 0 0 0 0 0 0 0 0 0 0 0 0 0 0 0 0 0 0 0 0 0 0 0 0 0 0 0 0 0 0 0 0 0 0 0 0 0 0 0 0 0 0 0 0 0 0 0 0 0 0 0 0 0 0 0 0 0 0 0 0 0 0 0 0 0 0 0 0 0 0 0 0 0 0 0 0 0 0 0 0 0 0 0 0 0 0 0 0 0 0 0 0 0 0 0 0 0 0 0 0 0 0 0 0 0 0 0 0 0 0 0 0 0 0 0 0 0 0 0 0 0 0 0 0 0 0 0 0 0 0 0 0 0 0 0 0 0 0 0 0 0 0 0 0 0 0 0 0 0 0 0 0 0 0 0 0 0 0 0 0 0 0 0 0 0 0 0 0 0 0 0 0 0 0 0 0 0 0 0 0 0 0 0 0 0 0 0 0 0 0 0 0 0 0 0 0 0 0 0 0 0 0 0 0 0 0 0 0 0 0 0 0 0 0 0 0 0 0 0 0 0 0 0 0 0 0 0 0 0 0 0 0 0 0 0 0 0 0 0 0 0 0 0 0 0 0 0 0 0 0 0 0 0 0 0 0 0 0 0 0 0 0 0 0 0 0 0 0 0 0 0 0 0 0 0 0 0 0 0 0 0 0 0 0 0 0 0 0 0 0 0 0 0 0 0 0 0 0 0 0 0 0 0 0 0 0 0 0 0 0 0 0 0 0 0 0 0 0 0 0 0 0 0 0 0 0 0 0 0 0 0 0 0 0 0 0 0 0 0 0 0 0 0 0 0 0 0 0 0 0 0 0 0 0 0 0 0 0 0 0 0 0 0 0 0 0 0 0 0 0 0 0 0 0 0 0 0 0 0 0 0 0 0 0 0 0 0 0 0 0 0 0 0 0 0 0 0 0 0 0 0 0 0 0 0 0 0 0 0 0 0 0 0 0 0 0 0 0 0 0 0 0 0 0 0 0 0 0 0 0 0 0 0 0 0 0 0 0 0 0 0 0 0 0 0 0 0 0 0 0 0 0 0 0 0 0 0 0 0 0 0 0 0 0 0 0 0 0 0 0 0 0 0 0 0 0 0 0 0 0 0 0 0 0 0 0 0 0 0 0 0 0 0 0 0 0 0 0 0 0 0 0 0 0 0 0 0 0 0 0 0 0 0 0 0 0 0 0 0 0 0 0 0 0 0 0 0 0 0 0 0 0 0 0 0 0 0 0 0 0 0 0 0 0 0 0 0 0 0 0 0 0 0 0 0 0 0 0 0 0 0 0 0 0 0 0 0 0 0 0 0 0 0 0 0 0 0 0 0 0 0 0 0 0 0 0 0 0 0 0 0 0 0 0 0 0 0 0 0 0 0 0 0 0 0 0 0 0 0 0 0 0 0 0 0 0 0 0 0 0 0 0 0 0 0 0 0 0 0 0 0 0 0 0 0 0 0 0 0 0 0 0 0 0 0 0 0 0 0 0 0 0 0 0 0 0 0 0 0 0 0 0 0 0 0 0 0 0 0 0 0 0 0 0 0 0 0 0 0 0 0 0 0 0 
1 1 2 5 1 1 1 1 2 2 3 4 5 5 3 3 4 4 3 3 4 4 3 3 4 4 3 3 3 3 3 3 3 3 3 3 3 3 3 3 3 3 3 3 3 3 4 4 4 4 4 4 4 4 4 4 4 4 4 4 4 4 4 4 4 4 


SCALARS ManifoldID int 1
LOOKUP_TABLE default
-1 -1 -1 -1 -1 -1 -1 -1 -1 -1 -1 -1 -1 -1 -1 -1 -1 -1 -1 -1 -1 -1 -1 -1 -1 -1 -1 -1 -1 -1 -1 -1 -1 -1 -1 -1 -1 -1 -1 -1 -1 -1 -1 -1 -1 -1 -1 -1 -1 -1 -1 -1 -1 -1 -1 -1 -1 -1 -1 -1 -1 -1 -1 -1 -1 -1 -1 -1 -1 -1 -1 -1 -1 -1 -1 -1 -1 -1 -1 -1 -1 -1 -1 -1 -1 -1 -1 -1 -1 -1 -1 -1 -1 -1 -1 -1 -1 -1 -1 -1 -1 -1 -1 -1 -1 -1 -1 -1 -1 -1 -1 -1 -1 -1 -1 -1 -1 -1 -1 -1 -1 -1 -1 -1 -1 -1 -1 -1 -1 -1 -1 -1 -1 -1 -1 -1 -1 -1 -1 -1 -1 -1 -1 -1 -1 -1 -1 -1 -1 -1 -1 -1 -1 -1 -1 -1 -1 -1 -1 -1 -1 -1 -1 -1 -1 -1 -1 -1 -1 -1 -1 -1 -1 -1 -1 -1 -1 -1 -1 -1 -1 -1 -1 -1 -1 -1 -1 -1 -1 -1 -1 -1 -1 -1 -1 -1 -1 -1 -1 -1 -1 -1 -1 -1 -1 -1 -1 -1 -1 -1 -1 -1 -1 -1 -1 -1 -1 -1 -1 -1 -1 -1 -1 -1 -1 -1 -1 -1 -1 -1 -1 -1 -1 -1 -1 -1 -1 -1 -1 -1 -1 -1 -1 -1 -1 -1 -1 -1 -1 -1 -1 -1 -1 -1 -1 -1 -1 -1 -1 -1 -1 -1 -1 -1 -1 -1 -1 -1 -1 -1 -1 -1 -1 -1 -1 -1 -1 -1 -1 -1 -1 -1 -1 -1 -1 -1 -1 -1 -1 -1 -1 -1 -1 -1 -1 -1 -1 -1 -1 -1 -1 -1 -1 -1 -1 -1 -1 -1 -1 -1 -1 -1 -1 -1 -1 -1 -1 -1 -1 -1 -1 -1 -1 -1 -1 -1 -1 -1 -1 -1 -1 -1 -1 -1 -1 -1 -1 -1 -1 -1 -1 -1 -1 -1 -1 -1 -1 -1 -1 -1 -1 -1 -1 -1 -1 -1 -1 -1 -1 -1 -1 -1 -1 -1 -1 -1 -1 -1 -1 -1 -1 -1 -1 -1 -1 -1 -1 -1 -1 -1 -1 -1 -1 -1 -1 -1 -1 -1 -1 -1 -1 -1 -1 -1 -1 -1 -1 -1 -1 -1 -1 -1 -1 -1 -1 -1 -1 -1 -1 -1 -1 -1 -1 -1 -1 -1 -1 -1 -1 -1 -1 -1 -1 -1 -1 -1 -1 -1 -1 -1 -1 -1 -1 -1 -1 -1 -1 -1 -1 -1 -1 -1 -1 -1 -1 -1 -1 -1 -1 -1 -1 -1 -1 -1 -1 -1 -1 -1 -1 -1 -1 -1 -1 -1 -1 -1 -1 -1 -1 -1 -1 -1 -1 -1 -1 -1 -1 -1 -1 -1 -1 -1 -1 -1 -1 -1 -1 -1 -1 -1 -1 -1 -1 -1 -1 -1 -1 -1 -1 -1 -1 -1 -1 -1 -1 -1 -1 -1 -1 -1 -1 -1 -1 -1 -1 -1 -1 -1 -1 -1 -1 -1 -1 -1 -1 -1 -1 -1 -1 -1 -1 -1 -1 -1 -1 -1 -1 -1 -1 -1 -1 -1 -1 -1 -1 -1 -1 -1 -1 -1 -1 -1 -1 -1 -1 -1 -1 -1 -1 -1 -1 -1 -1 -1 -1 -1 -1 -1 -1 -1 -1 -1 -1 -1 -1 -1 -1 -1 -1 -1 -1 -1 -1 -1 -1 -1 -1 -1 -1 -1 -1 -1 -1 -1 -1 -1 -1 -1 -1 -1 -1 -1 -1 -1 -1 -1 -1 -1 -1 -1 -1 -1 -1 -1 -1 -1 -1 -1 -1 -1 -1 -1 -1 -1 -1 -1 -1 -1 -1 -1 -1 -1 -1 -1 -1 -1 -1 -1 -1 -1 -1 -1 -1 -1 -1 -1 -1 -1 -1 -1 -1 -1 -1 -1 -1 -1 -1 -1 -1 -1 -1 -1 -1 -1 -1 -1 -1 -1 -1 -1 -1 -1 -1 -1 -1 -1 -1 -1 -1 -1 -1 -1 -1 -1 -1 -1 -1 -1 -1 -1 -1 -1 -1 -1 -1 -1 -1 -1 -1 -1 -1 -1 -1 -1 -1 -1 -1 -1 -1 -1 -1 -1 -1 -1 -1 -1 -1 -1 -1 -1 -1 -1 -1 -1 -1 -1 -1 -1 -1 -1 -1 -1 -1 -1 -1 -1 -1 -1 -1 -1 -1 -1 -1 -1 -1 -1 -1 -1 -1 -1 -1 -1 -1 -1 -1 -1 -1 -1 -1 -1 -1 -1 -1 -1 -1 -1 -1 -1 -1 -1 -1 -1 -1 -1 -1 -1 -1 -1 -1 -1 -1 -1 -1 -1 -1 -1 -1 -1 -1 -1 -1 -1 -1 -1 -1 -1 -1 -1 -1 -1 -1 -1 -1 -1 -1 -1 -1 -1 -1 -1 -1 -1 -1 -1 -1 -1 -1 -1 -1 -1 -1 -1 -1 -1 -1 -1 -1 -1 -1 -1 -1 -1 -1 -1 -1 -1 -1 -1 -1 -1 -1 -1 -1 -1 -1 -1 -1 -1 -1 -1 -1 -1 -1 -1 -1 -1 -1 -1 -1 -1 -1 -1 -1 -1 -1 -1 -1 -1 -1 -1 -1 -1 -1 -1 -1 -1 -1 -1 -1 -1 -1 -1 -1 -1 -1 -1 -1 -1 -1 -1 -1 -1 -1 -1 -1 -1 -1 -1 -1 -1 -1 -1 -1 -1 -1 -1 -1 -1 -1 -1 -1 -1 -1 -1 -1 -1 -1 -1 -1 -1 -1 -1 -1 -1 -1 -1 -1 -1 -1 -1 -1 -1 -1 -1 -1 -1 -1 -1 -1 -1 -1 -1 -1 -1 -1 -1 -1 -1 -1 -1 -1 -1 -1 -1 -1 -1 -1 -1 -1 -1 -1 -1 -1 -1 -1 -1 -1 -1 -1 -1 -1 -1 -1 -1 -1 -1 -1 -1 -1 -1 -1 -1 -1 -1 -1 -1 -1 -1 -1 -1 -1 -1 -1 -1 -1 -1 -1 -1 -1 -1 -1 -1 -1 -1 -1 -1 -1 -1 -1 -1 -1 -1 -1 -1 -1 -1 -1 -1 -1 -1 -1 -1 -1 -1 -1 -1 -1 -1 -1 -1 -1 -1 -1 -1 -1 -1 -1 -1 -1 -1 -1 -1 -1 -1 -1 -1 -1 -1 -1 -1 -1 -1 -1 -1 -1 -1 -1 -1 -1 -1 -1 -1 -1 -1 -1 -1 -1 -1 -1 -1 -1 -1 -1 -1 -1 -1 -1 -1 -1 -1 -1 -1 -1 -1 -1 -1 -1 -1 -1 -1 -1 -1 -1 -1 -1 -1 -1 -1 -1 -1 -1 -1 -1 -1 -1 -1 -1 -1 -1 -1 -1 -1 -1 -1 -1 -1 -1 -1 -1 -1 -1 -1 -1 -1 -1 -1 -1 -1 -1 -1 -1 -1 -1 -1 -1 -1 -1 -1 -1 -1 -1 -1 -1 -1 -1 -1 -1 -1 -1 -1 -1 -1 -1 -1 -1 -1 -1 -1 -1 -1 -1 -1 -1 -1 -1 -1 -1 -1 -1 -1 -1 -1 -1 -1 -1 -1 -1 -1 -1 -1 -1 -1 -1 -1 -1 -1 -1 -1 -1 -1 -1 
-1 -1 -1 -1 -1 -1 -1 -1 -1 -1 -1 -1 -1 -1 -1 -1 -1 -1 -1 -1 -1 -1 -1 -1 -1 -1 -1 -1 -1 -1 -1 -1 -1 -1 -1 -1 -1 -1 -1 -1 -1 -1 -1 -1 -1 -1 -1 -1 -1 -1 -1 -1 -1 -1 -1 -1 -1 -1 -1 -1 -1 -1 -1 -1 -1 -1 

