# vtk DataFile Version 3.0
Triangulation generated with deal.II
ASCII
DATASET UNSTRUCTURED_GRID
POINTS 8 double
0.292893 -0.707107 0
1.70711 -0.707107 0
0.707107 -0.292893 0
1.29289 -0.292893 0
0.707107 0.292893 0
1.29289 0.292893 0
0.292893 0.707107 0
1.70711 0.707107 0

CELLS 17 61
4 0 1 3 2
4 0 2 4 6
4 2 3 5 4
4 1 7 5 3
4 6 4 5 7
2 0 1
2 0 2
2 0 6
2 1 3
2 1 7
2 2 3
2 2 4
2 3 5
2 4 5
2 6 4
2 6 7
2 7 5

CELL_TYPES 17
9 9 9 9 9 
3 3 3 3 3 3 3 3 3 3 3 3 


CELL_DATA 17
SCALARS MaterialID int 1
LOOKUP_TABLE default
0 0 0 0 0 
0 -1 0 -1 0 -1 -1 -1 -1 -1 0 -1 


SCALARS ManifoldID int 1
LOOKUP_TABLE default
100 100 100 100 100 
100 100 100 100 100 100 100 100 100 100 100 100 

