# vtk DataFile Version 3.0
Triangulation generated with deal.II
ASCII
DATASET UNSTRUCTURED_GRID
POINTS 25 double
0.292893 -0.707107 0
1.70711 -0.707107 0
0.707107 -0.292893 0
1.29289 -0.292893 0
0.707107 0.292893 0
1.29289 0.292893 0
0.292893 0.707107 0
1.70711 0.707107 0
1 -1 0
0.5 -0.5 0
1.11022e-16 -1.11022e-16 0
1.5 -0.5 0
2 -1.11022e-16 0
1 -0.292893 0
0.707107 0 0
1.29289 0 0
1 0.292893 0
0.5 0.5 0
1 1 0
1.5 0.5 0
1 -0.646447 0
0.353553 -5.55112e-17 0
1 0 0
1.64645 -5.55112e-17 0
1 0.646447 0

CELLS 32 136
4 0 8 20 9
4 8 1 11 20
4 9 20 13 2
4 20 11 3 13
4 0 9 21 10
4 9 2 14 21
4 10 21 17 6
4 21 14 4 17
4 2 13 22 14
4 13 3 15 22
4 14 22 16 4
4 22 15 5 16
4 1 12 23 11
4 12 7 19 23
4 11 23 15 3
4 23 19 5 15
4 6 17 24 18
4 17 4 16 24
4 18 24 19 7
4 24 16 5 19
2 0 8
2 8 1
2 0 10
2 10 6
2 1 12
2 12 7
2 6 18
2 18 7
2 13 22
2 22 16
2 14 22
2 22 15

CELL_TYPES 32
9 9 9 9 9 9 9 9 9 9 9 9 9 9 9 9 9 9 9 9 
3 3 3 3 3 3 3 3 3 3 3 3 


CELL_DATA 32
SCALARS MaterialID int 1
LOOKUP_TABLE default
0 0 0 0 0 0 0 0 0 0 0 0 0 0 0 0 0 0 0 0 
0 0 0 0 0 0 0 0 -1 -1 -1 -1 


SCALARS ManifoldID int 1
LOOKUP_TABLE default
-1 -1 -1 -1 -1 -1 -1 -1 1 1 1 1 -1 -1 -1 -1 -1 -1 -1 -1 
100 100 100 100 100 100 100 100 1 1 1 1 

