# vtk DataFile Version 3.0
Triangulation generated with deal.II
ASCII
DATASET UNSTRUCTURED_GRID
POINTS 337 double
0.292893 -0.707107 0
1.70711 -0.707107 0
0.707107 -0.292893 0
1.29289 -0.292893 0
0.707107 0.292893 0
1.29289 0.292893 0
0.292893 0.707107 0
1.70711 0.707107 0
1 -1 0
0.5 -0.5 0
1.11022e-16 -1.11022e-16 0
1.5 -0.5 0
2 -1.11022e-16 0
1 -0.292893 0
0.707107 0 0
1.29289 0 0
1 0.292893 0
0.5 0.5 0
1 1 0
1.5 0.5 0
1 -0.646447 0
0.353553 -5.55112e-17 0
1 0 0
1.64645 -5.55112e-17 0
1 0.646447 0
0.617317 -0.92388 0
1.38268 -0.92388 0
0.396447 -0.603553 0
0.603553 -0.396447 0
0.0761205 -0.382683 0
0.0761205 0.382683 0
1.60355 -0.603553 0
1.39645 -0.396447 0
1.92388 -0.382683 0
1.92388 0.382683 0
0.853553 -0.292893 0
1.14645 -0.292893 0
0.707107 -0.146447 0
0.707107 0.146447 0
1.29289 -0.146447 0
1.29289 0.146447 0
0.853553 0.292893 0
1.14645 0.292893 0
0.396447 0.603553 0
0.603553 0.396447 0
0.617317 0.92388 0
1.38268 0.92388 0
1.60355 0.603553 0
1.39645 0.396447 0
1 -0.823223 0
1 -0.46967 0
0.75 -0.573223 0
1.25 -0.573223 0
0.426777 -0.25 0
0.426777 0.25 0
0.176777 -8.32667e-17 0
0.53033 -2.77556e-17 0
1 -0.146447 0
1 0.146447 0
0.853553 0 0
1.14645 0 0
1.82322 -8.32667e-17 0
1.46967 -2.77556e-17 0
1.57322 -0.25 0
1.57322 0.25 0
0.75 0.573223 0
1.25 0.573223 0
1 0.823223 0
1 0.46967 0
0.683658 -0.748551 0
1.31634 -0.748551 0
0.801777 -0.433058 0
1.19822 -0.433058 0
0.251449 -0.316342 0
0.566942 -0.198223 0
0.251449 0.316342 0
0.566942 0.198223 0
0.853553 -0.146447 0
1.14645 -0.146447 0
0.853553 0.146447 0
1.14645 0.146447 0
1.74855 -0.316342 0
1.74855 0.316342 0
1.43306 -0.198223 0
1.43306 0.198223 0
0.683658 0.748551 0
0.801777 0.433058 0
1.31634 0.748551 0
1.19822 0.433058 0
0.44443 -0.83147 0
0.80491 -0.980785 0
1.19509 -0.980785 0
1.55557 -0.83147 0
0.34467 -0.65533 0
0.448223 -0.551777 0
0.551777 -0.448223 0
0.65533 -0.34467 0
0.16853 -0.55557 0
0.0192147 -0.19509 0
0.0192147 0.19509 0
0.16853 0.55557 0
1.65533 -0.65533 0
1.55178 -0.551777 0
1.44822 -0.448223 0
1.34467 -0.34467 0
1.83147 -0.55557 0
1.98079 -0.19509 0
1.98079 0.19509 0
1.83147 0.55557 0
0.78033 -0.292893 0
0.926777 -0.292893 0
1.07322 -0.292893 0
1.21967 -0.292893 0
0.707107 -0.21967 0
0.707107 -0.0732233 0
0.707107 0.0732233 0
0.707107 0.21967 0
1.29289 -0.21967 0
1.29289 -0.0732233 0
1.29289 0.0732233 0
1.29289 0.21967 0
0.78033 0.292893 0
0.926777 0.292893 0
1.07322 0.292893 0
1.21967 0.292893 0
0.34467 0.65533 0
0.448223 0.551777 0
0.551777 0.448223 0
0.65533 0.34467 0
0.44443 0.83147 0
0.80491 0.980785 0
1.19509 0.980785 0
1.55557 0.83147 0
1.65533 0.65533 0
1.55178 0.551777 0
1.44822 0.448223 0
1.34467 0.34467 0
1 -0.911612 0
1 -0.734835 0
1 -0.558058 0
1 -0.381282 0
0.625 -0.536612 0
0.875 -0.609835 0
1.125 -0.609835 0
1.375 -0.536612 0
0.463388 -0.375 0
0.390165 -0.125 0
0.390165 0.125 0
0.463388 0.375 0
0.0883883 -9.71445e-17 0
0.265165 -6.93889e-17 0
0.441942 -4.16334e-17 0
0.618718 -1.38778e-17 0
1 -0.21967 0
1 -0.0732233 0
1 0.0732233 0
1 0.21967 0
0.78033 0 0
0.926777 0 0
1.07322 0 0
1.21967 0 0
1.91161 -9.71445e-17 0
1.73483 -6.93889e-17 0
1.55806 -4.16334e-17 0
1.38128 -1.38778e-17 0
1.53661 -0.375 0
1.60983 -0.125 0
1.60983 0.125 0
1.53661 0.375 0
0.625 0.536612 0
0.875 0.609835 0
1.125 0.609835 0
1.375 0.536612 0
1 0.911612 0
1 0.734835 0
1 0.558058 0
1 0.381282 0
0.650487 -0.836215 0
0.716829 -0.660887 0
0.540052 -0.676052 0
0.841829 -0.785887 0
1.34951 -0.836215 0
1.28317 -0.660887 0
1.15817 -0.785887 0
1.45995 -0.676052 0
0.775888 -0.503141 0
0.827665 -0.362976 0
0.702665 -0.414752 0
0.900888 -0.451364 0
1.22411 -0.503141 0
1.17233 -0.362976 0
1.09911 -0.451364 0
1.29733 -0.414752 0
0.323948 -0.459948 0
0.214113 -0.158171 0
0.163785 -0.349513 0
0.339113 -0.283171 0
0.585248 -0.297335 0
0.548636 -0.0991117 0
0.496859 -0.224112 0
0.637024 -0.172335 0
0.214113 0.158171 0
0.323948 0.459948 0
0.163785 0.349513 0
0.339113 0.283171 0
0.548636 0.0991117 0
0.585248 0.297335 0
0.496859 0.224112 0
0.637024 0.172335 0
0.853553 -0.21967 0
0.853553 -0.0732233 0
0.78033 -0.146447 0
0.926777 -0.146447 0
1.14645 -0.21967 0
1.14645 -0.0732233 0
1.07322 -0.146447 0
1.21967 -0.146447 0
0.853553 0.0732233 0
0.853553 0.21967 0
0.78033 0.146447 0
0.926777 0.146447 0
1.14645 0.0732233 0
1.14645 0.21967 0
1.07322 0.146447 0
1.21967 0.146447 0
1.83622 -0.349513 0
1.66089 -0.283171 0
1.67605 -0.459948 0
1.78589 -0.158171 0
1.83622 0.349513 0
1.66089 0.283171 0
1.78589 0.158171 0
1.67605 0.459948 0
1.50314 -0.224112 0
1.36298 -0.172335 0
1.41475 -0.297335 0
1.45136 -0.0991117 0
1.50314 0.224112 0
1.36298 0.172335 0
1.45136 0.0991117 0
1.41475 0.297335 0
0.540052 0.676052 0
0.841829 0.785887 0
0.650487 0.836215 0
0.716829 0.660887 0
0.702665 0.414752 0
0.900888 0.451364 0
0.775888 0.503141 0
0.827665 0.362976 0
1.15817 0.785887 0
1.45995 0.676052 0
1.34951 0.836215 0
1.28317 0.660887 0
1.09911 0.451364 0
1.29733 0.414752 0
1.22411 0.503141 0
1.17233 0.362976 0
0.492241 -0.753761 0
0.823369 -0.883336 0
0.582526 -0.606332 0
0.858415 -0.697861 0
1.17663 -0.883336 0
1.50776 -0.753761 0
1.14159 -0.697861 0
1.41747 -0.606332 0
0.663833 -0.475682 0
0.887944 -0.5306 0
0.741498 -0.353823 0
0.913833 -0.372129 0
1.11206 -0.5306 0
1.33617 -0.475682 0
1.08617 -0.372129 0
1.2585 -0.353823 0
0.246239 -0.507759 0
0.393668 -0.417474 0
0.116664 -0.176631 0
0.302139 -0.141585 0
0.524318 -0.336167 0
0.646177 -0.258502 0
0.4694 -0.112056 0
0.627871 -0.0861675 0
0.116664 0.176631 0
0.302139 0.141585 0
0.246239 0.507759 0
0.393668 0.417474 0
0.4694 0.112056 0
0.627871 0.0861675 0
0.524318 0.336167 0
0.646177 0.258502 0
0.78033 -0.21967 0
0.926777 -0.21967 0
0.78033 -0.0732233 0
0.926777 -0.0732233 0
1.07322 -0.21967 0
1.21967 -0.21967 0
1.07322 -0.0732233 0
1.21967 -0.0732233 0
0.78033 0.0732233 0
0.926777 0.0732233 0
0.78033 0.21967 0
0.926777 0.21967 0
1.07322 0.0732233 0
1.21967 0.0732233 0
1.07322 0.21967 0
1.21967 0.21967 0
1.75376 -0.507759 0
1.88334 -0.176631 0
1.60633 -0.417474 0
1.69786 -0.141585 0
1.88334 0.176631 0
1.75376 0.507759 0
1.69786 0.141585 0
1.60633 0.417474 0
1.47568 -0.336167 0
1.5306 -0.112056 0
1.35382 -0.258502 0
1.37213 -0.0861675 0
1.5306 0.112056 0
1.47568 0.336167 0
1.37213 0.0861675 0
1.35382 0.258502 0
0.492241 0.753761 0
0.582526 0.606332 0
0.823369 0.883336 0
0.858415 0.697861 0
0.663833 0.475682 0
0.741498 0.353823 0
0.887944 0.5306 0
0.913833 0.372129 0
1.17663 0.883336 0
1.14159 0.697861 0
1.50776 0.753761 0
1.41747 0.606332 0
1.11206 0.5306 0
1.08617 0.372129 0
1.33617 0.475682 0
1.2585 0.353823 0

CELLS 464 2032
4 0 89 257 93
4 89 25 177 257
4 93 257 179 27
4 257 177 69 179
4 25 90 258 177
4 90 8 137 258
4 177 258 180 69
4 258 137 49 180
4 27 179 259 94
4 179 69 178 259
4 94 259 141 9
4 259 178 51 141
4 69 180 260 178
4 180 49 138 260
4 178 260 142 51
4 260 138 20 142
4 8 91 261 137
4 91 26 181 261
4 137 261 183 49
4 261 181 70 183
4 26 92 262 181
4 92 1 101 262
4 181 262 184 70
4 262 101 31 184
4 49 183 263 138
4 183 70 182 263
4 138 263 143 20
4 263 182 52 143
4 70 184 264 182
4 184 31 102 264
4 182 264 144 52
4 264 102 11 144
4 9 141 265 95
4 141 51 185 265
4 95 265 187 28
4 265 185 71 187
4 51 142 266 185
4 142 20 139 266
4 185 266 188 71
4 266 139 50 188
4 28 187 267 96
4 187 71 186 267
4 96 267 109 2
4 267 186 35 109
4 71 188 268 186
4 188 50 140 268
4 186 268 110 35
4 268 140 13 110
4 20 143 269 139
4 143 52 189 269
4 139 269 191 50
4 269 189 72 191
4 52 144 270 189
4 144 11 103 270
4 189 270 192 72
4 270 103 32 192
4 50 191 271 140
4 191 72 190 271
4 140 271 111 13
4 271 190 36 111
4 72 192 272 190
4 192 32 104 272
4 190 272 112 36
4 272 104 3 112
4 0 93 273 97
4 93 27 193 273
4 97 273 195 29
4 273 193 73 195
4 27 94 274 193
4 94 9 145 274
4 193 274 196 73
4 274 145 53 196
4 29 195 275 98
4 195 73 194 275
4 98 275 149 10
4 275 194 55 149
4 73 196 276 194
4 196 53 146 276
4 194 276 150 55
4 276 146 21 150
4 9 95 277 145
4 95 28 197 277
4 145 277 199 53
4 277 197 74 199
4 28 96 278 197
4 96 2 113 278
4 197 278 200 74
4 278 113 37 200
4 53 199 279 146
4 199 74 198 279
4 146 279 151 21
4 279 198 56 151
4 74 200 280 198
4 200 37 114 280
4 198 280 152 56
4 280 114 14 152
4 10 149 281 99
4 149 55 201 281
4 99 281 203 30
4 281 201 75 203
4 55 150 282 201
4 150 21 147 282
4 201 282 204 75
4 282 147 54 204
4 30 203 283 100
4 203 75 202 283
4 100 283 125 6
4 283 202 43 125
4 75 204 284 202
4 204 54 148 284
4 202 284 126 43
4 284 148 17 126
4 21 151 285 147
4 151 56 205 285
4 147 285 207 54
4 285 205 76 207
4 56 152 286 205
4 152 14 115 286
4 205 286 208 76
4 286 115 38 208
4 54 207 287 148
4 207 76 206 287
4 148 287 127 17
4 287 206 44 127
4 76 208 288 206
4 208 38 116 288
4 206 288 128 44
4 288 116 4 128
4 2 109 289 113
4 109 35 209 289
4 113 289 211 37
4 289 209 77 211
4 35 110 290 209
4 110 13 153 290
4 209 290 212 77
4 290 153 57 212
4 37 211 291 114
4 211 77 210 291
4 114 291 157 14
4 291 210 59 157
4 77 212 292 210
4 212 57 154 292
4 210 292 158 59
4 292 154 22 158
4 13 111 293 153
4 111 36 213 293
4 153 293 215 57
4 293 213 78 215
4 36 112 294 213
4 112 3 117 294
4 213 294 216 78
4 294 117 39 216
4 57 215 295 154
4 215 78 214 295
4 154 295 159 22
4 295 214 60 159
4 78 216 296 214
4 216 39 118 296
4 214 296 160 60
4 296 118 15 160
4 14 157 297 115
4 157 59 217 297
4 115 297 219 38
4 297 217 79 219
4 59 158 298 217
4 158 22 155 298
4 217 298 220 79
4 298 155 58 220
4 38 219 299 116
4 219 79 218 299
4 116 299 121 4
4 299 218 41 121
4 79 220 300 218
4 220 58 156 300
4 218 300 122 41
4 300 156 16 122
4 22 159 301 155
4 159 60 221 301
4 155 301 223 58
4 301 221 80 223
4 60 160 302 221
4 160 15 119 302
4 221 302 224 80
4 302 119 40 224
4 58 223 303 156
4 223 80 222 303
4 156 303 123 16
4 303 222 42 123
4 80 224 304 222
4 224 40 120 304
4 222 304 124 42
4 304 120 5 124
4 1 105 305 101
4 105 33 225 305
4 101 305 227 31
4 305 225 81 227
4 33 106 306 225
4 106 12 161 306
4 225 306 228 81
4 306 161 61 228
4 31 227 307 102
4 227 81 226 307
4 102 307 165 11
4 307 226 63 165
4 81 228 308 226
4 228 61 162 308
4 226 308 166 63
4 308 162 23 166
4 12 107 309 161
4 107 34 229 309
4 161 309 231 61
4 309 229 82 231
4 34 108 310 229
4 108 7 133 310
4 229 310 232 82
4 310 133 47 232
4 61 231 311 162
4 231 82 230 311
4 162 311 167 23
4 311 230 64 167
4 82 232 312 230
4 232 47 134 312
4 230 312 168 64
4 312 134 19 168
4 11 165 313 103
4 165 63 233 313
4 103 313 235 32
4 313 233 83 235
4 63 166 314 233
4 166 23 163 314
4 233 314 236 83
4 314 163 62 236
4 32 235 315 104
4 235 83 234 315
4 104 315 117 3
4 315 234 39 117
4 83 236 316 234
4 236 62 164 316
4 234 316 118 39
4 316 164 15 118
4 23 167 317 163
4 167 64 237 317
4 163 317 239 62
4 317 237 84 239
4 64 168 318 237
4 168 19 135 318
4 237 318 240 84
4 318 135 48 240
4 62 239 319 164
4 239 84 238 319
4 164 319 119 15
4 319 238 40 119
4 84 240 320 238
4 240 48 136 320
4 238 320 120 40
4 320 136 5 120
4 6 125 321 129
4 125 43 241 321
4 129 321 243 45
4 321 241 85 243
4 43 126 322 241
4 126 17 169 322
4 241 322 244 85
4 322 169 65 244
4 45 243 323 130
4 243 85 242 323
4 130 323 173 18
4 323 242 67 173
4 85 244 324 242
4 244 65 170 324
4 242 324 174 67
4 324 170 24 174
4 17 127 325 169
4 127 44 245 325
4 169 325 247 65
4 325 245 86 247
4 44 128 326 245
4 128 4 121 326
4 245 326 248 86
4 326 121 41 248
4 65 247 327 170
4 247 86 246 327
4 170 327 175 24
4 327 246 68 175
4 86 248 328 246
4 248 41 122 328
4 246 328 176 68
4 328 122 16 176
4 18 173 329 131
4 173 67 249 329
4 131 329 251 46
4 329 249 87 251
4 67 174 330 249
4 174 24 171 330
4 249 330 252 87
4 330 171 66 252
4 46 251 331 132
4 251 87 250 331
4 132 331 133 7
4 331 250 47 133
4 87 252 332 250
4 252 66 172 332
4 250 332 134 47
4 332 172 19 134
4 24 175 333 171
4 175 68 253 333
4 171 333 255 66
4 333 253 88 255
4 68 176 334 253
4 176 16 123 334
4 253 334 256 88
4 334 123 42 256
4 66 255 335 172
4 255 88 254 335
4 172 335 135 19
4 335 254 48 135
4 88 256 336 254
4 256 42 124 336
4 254 336 136 48
4 336 124 5 136
2 0 89
2 89 25
2 25 90
2 90 8
2 8 91
2 91 26
2 26 92
2 92 1
2 0 97
2 97 29
2 29 98
2 98 10
2 10 99
2 99 30
2 30 100
2 100 6
2 1 105
2 105 33
2 33 106
2 106 12
2 12 107
2 107 34
2 34 108
2 108 7
2 6 129
2 129 45
2 45 130
2 130 18
2 18 131
2 131 46
2 46 132
2 132 7
2 13 153
2 153 57
2 57 154
2 154 22
2 22 155
2 155 58
2 58 156
2 156 16
2 14 157
2 157 59
2 59 158
2 158 22
2 22 159
2 159 60
2 60 160
2 160 15
2 35 209
2 209 77
2 77 210
2 210 59
2 37 211
2 211 77
2 77 212
2 212 57
2 36 213
2 213 78
2 78 214
2 214 60
2 57 215
2 215 78
2 78 216
2 216 39
2 59 217
2 217 79
2 79 218
2 218 41
2 38 219
2 219 79
2 79 220
2 220 58
2 60 221
2 221 80
2 80 222
2 222 42
2 58 223
2 223 80
2 80 224
2 224 40
2 109 289
2 289 211
2 113 289
2 289 209
2 110 290
2 290 212
2 209 290
2 290 153
2 211 291
2 291 157
2 114 291
2 291 210
2 212 292
2 292 158
2 210 292
2 292 154
2 111 293
2 293 215
2 153 293
2 293 213
2 112 294
2 294 216
2 213 294
2 294 117
2 215 295
2 295 159
2 154 295
2 295 214
2 216 296
2 296 160
2 214 296
2 296 118
2 157 297
2 297 219
2 115 297
2 297 217
2 158 298
2 298 220
2 217 298
2 298 155
2 219 299
2 299 121
2 116 299
2 299 218
2 220 300
2 300 122
2 218 300
2 300 156
2 159 301
2 301 223
2 155 301
2 301 221
2 160 302
2 302 224
2 221 302
2 302 119
2 223 303
2 303 123
2 156 303
2 303 222
2 224 304
2 304 124
2 222 304
2 304 120

CELL_TYPES 464
9 9 9 9 9 9 9 9 9 9 9 9 9 9 9 9 9 9 9 9 9 9 9 9 9 9 9 9 9 9 9 9 9 9 9 9 9 9 9 9 9 9 9 9 9 9 9 9 9 9 9 9 9 9 9 9 9 9 9 9 9 9 9 9 9 9 9 9 9 9 9 9 9 9 9 9 9 9 9 9 9 9 9 9 9 9 9 9 9 9 9 9 9 9 9 9 9 9 9 9 9 9 9 9 9 9 9 9 9 9 9 9 9 9 9 9 9 9 9 9 9 9 9 9 9 9 9 9 9 9 9 9 9 9 9 9 9 9 9 9 9 9 9 9 9 9 9 9 9 9 9 9 9 9 9 9 9 9 9 9 9 9 9 9 9 9 9 9 9 9 9 9 9 9 9 9 9 9 9 9 9 9 9 9 9 9 9 9 9 9 9 9 9 9 9 9 9 9 9 9 9 9 9 9 9 9 9 9 9 9 9 9 9 9 9 9 9 9 9 9 9 9 9 9 9 9 9 9 9 9 9 9 9 9 9 9 9 9 9 9 9 9 9 9 9 9 9 9 9 9 9 9 9 9 9 9 9 9 9 9 9 9 9 9 9 9 9 9 9 9 9 9 9 9 9 9 9 9 9 9 9 9 9 9 9 9 9 9 9 9 9 9 9 9 9 9 9 9 9 9 9 9 9 9 9 9 9 9 9 9 9 9 9 9 9 9 9 9 9 9 
3 3 3 3 3 3 3 3 3 3 3 3 3 3 3 3 3 3 3 3 3 3 3 3 3 3 3 3 3 3 3 3 3 3 3 3 3 3 3 3 3 3 3 3 3 3 3 3 3 3 3 3 3 3 3 3 3 3 3 3 3 3 3 3 3 3 3 3 3 3 3 3 3 3 3 3 3 3 3 3 3 3 3 3 3 3 3 3 3 3 3 3 3 3 3 3 3 3 3 3 3 3 3 3 3 3 3 3 3 3 3 3 3 3 3 3 3 3 3 3 3 3 3 3 3 3 3 3 3 3 3 3 3 3 3 3 3 3 3 3 3 3 3 3 


CELL_DATA 464
SCALARS MaterialID int 1
LOOKUP_TABLE default
0 0 0 0 0 0 0 0 0 0 0 0 0 0 0 0 0 0 0 0 0 0 0 0 0 0 0 0 0 0 0 0 0 0 0 0 0 0 0 0 0 0 0 0 0 0 0 0 0 0 0 0 0 0 0 0 0 0 0 0 0 0 0 0 0 0 0 0 0 0 0 0 0 0 0 0 0 0 0 0 0 0 0 0 0 0 0 0 0 0 0 0 0 0 0 0 0 0 0 0 0 0 0 0 0 0 0 0 0 0 0 0 0 0 0 0 0 0 0 0 0 0 0 0 0 0 0 0 0 0 0 0 0 0 0 0 0 0 0 0 0 0 0 0 0 0 0 0 0 0 0 0 0 0 0 0 0 0 0 0 0 0 0 0 0 0 0 0 0 0 0 0 0 0 0 0 0 0 0 0 0 0 0 0 0 0 0 0 0 0 0 0 0 0 0 0 0 0 0 0 0 0 0 0 0 0 0 0 0 0 0 0 0 0 0 0 0 0 0 0 0 0 0 0 0 0 0 0 0 0 0 0 0 0 0 0 0 0 0 0 0 0 0 0 0 0 0 0 0 0 0 0 0 0 0 0 0 0 0 0 0 0 0 0 0 0 0 0 0 0 0 0 0 0 0 0 0 0 0 0 0 0 0 0 0 0 0 0 0 0 0 0 0 0 0 0 0 0 0 0 0 0 0 0 0 0 0 0 0 0 0 0 0 0 0 0 0 0 0 0 
0 0 0 0 0 0 0 0 0 0 0 0 0 0 0 0 0 0 0 0 0 0 0 0 0 0 0 0 0 0 0 0 -1 -1 -1 -1 -1 -1 -1 -1 -1 -1 -1 -1 -1 -1 -1 -1 -1 -1 -1 -1 -1 -1 -1 -1 -1 -1 -1 -1 -1 -1 -1 -1 -1 -1 -1 -1 -1 -1 -1 -1 -1 -1 -1 -1 -1 -1 -1 -1 -1 -1 -1 -1 -1 -1 -1 -1 -1 -1 -1 -1 -1 -1 -1 -1 -1 -1 -1 -1 -1 -1 -1 -1 -1 -1 -1 -1 -1 -1 -1 -1 -1 -1 -1 -1 -1 -1 -1 -1 -1 -1 -1 -1 -1 -1 -1 -1 -1 -1 -1 -1 -1 -1 -1 -1 -1 -1 -1 -1 -1 -1 -1 -1 


SCALARS ManifoldID int 1
LOOKUP_TABLE default
-1 -1 -1 -1 -1 -1 -1 -1 -1 -1 -1 -1 -1 -1 -1 -1 -1 -1 -1 -1 -1 -1 -1 -1 -1 -1 -1 -1 -1 -1 -1 -1 -1 -1 -1 -1 -1 -1 -1 -1 -1 -1 -1 -1 -1 -1 -1 -1 -1 -1 -1 -1 -1 -1 -1 -1 -1 -1 -1 -1 -1 -1 -1 -1 -1 -1 -1 -1 -1 -1 -1 -1 -1 -1 -1 -1 -1 -1 -1 -1 -1 -1 -1 -1 -1 -1 -1 -1 -1 -1 -1 -1 -1 -1 -1 -1 -1 -1 -1 -1 -1 -1 -1 -1 -1 -1 -1 -1 -1 -1 -1 -1 -1 -1 -1 -1 -1 -1 -1 -1 -1 -1 -1 -1 -1 -1 -1 -1 1 1 1 1 1 1 1 1 1 1 1 1 1 1 1 1 1 1 1 1 1 1 1 1 1 1 1 1 1 1 1 1 1 1 1 1 1 1 1 1 1 1 1 1 1 1 1 1 1 1 1 1 1 1 1 1 1 1 1 1 1 1 1 1 -1 -1 -1 -1 -1 -1 -1 -1 -1 -1 -1 -1 -1 -1 -1 -1 -1 -1 -1 -1 -1 -1 -1 -1 -1 -1 -1 -1 -1 -1 -1 -1 -1 -1 -1 -1 -1 -1 -1 -1 -1 -1 -1 -1 -1 -1 -1 -1 -1 -1 -1 -1 -1 -1 -1 -1 -1 -1 -1 -1 -1 -1 -1 -1 -1 -1 -1 -1 -1 -1 -1 -1 -1 -1 -1 -1 -1 -1 -1 -1 -1 -1 -1 -1 -1 -1 -1 -1 -1 -1 -1 -1 -1 -1 -1 -1 -1 -1 -1 -1 -1 -1 -1 -1 -1 -1 -1 -1 -1 -1 -1 -1 -1 -1 -1 -1 -1 -1 -1 -1 -1 -1 -1 -1 -1 -1 -1 -1 
100 100 100 100 100 100 100 100 100 100 100 100 100 100 100 100 100 100 100 100 100 100 100 100 100 100 100 100 100 100 100 100 1 1 1 1 1 1 1 1 1 1 1 1 1 1 1 1 1 1 1 1 1 1 1 1 1 1 1 1 1 1 1 1 1 1 1 1 1 1 1 1 1 1 1 1 1 1 1 1 1 1 1 1 1 1 1 1 1 1 1 1 1 1 1 1 1 1 1 1 1 1 1 1 1 1 1 1 1 1 1 1 1 1 1 1 1 1 1 1 1 1 1 1 1 1 1 1 1 1 1 1 1 1 1 1 1 1 1 1 1 1 1 1 

