# vtk DataFile Version 3.0
Triangulation generated with deal.II
ASCII
DATASET UNSTRUCTURED_GRID
POINTS 21 double
-1 -1 0
0 -1 0
1 -1 0
-1 0 0
0 0 0
1 0 0
-1 1 0
0 1 0
-0.5 -1 0
-1 -0.5 0
0.5 -1 0
0 -0.5 0
1 -0.5 0
-0.5 0 0
-1 0.5 0
0.5 0 0
0 0.5 0
-0.5 1 0
-0.5 -0.5 0
0.5 -0.5 0
-0.5 0.5 0

CELLS 24 96
4 0 8 18 9
4 8 1 11 18
4 9 18 13 3
4 18 11 4 13
4 1 10 19 11
4 10 2 12 19
4 11 19 15 4
4 19 12 5 15
4 3 13 20 14
4 13 4 16 20
4 14 20 17 6
4 20 16 7 17
2 0 8
2 8 1
2 1 10
2 10 2
2 2 12
2 12 5
2 4 15
2 15 5
2 4 16
2 16 7
2 6 17
2 17 7

CELL_TYPES 24
9 9 9 9 9 9 9 9 9 9 9 9 
3 3 3 3 3 3 3 3 3 3 3 3 


CELL_DATA 24
SCALARS MaterialID int 1
LOOKUP_TABLE default
0 0 0 0 0 0 0 0 0 0 0 0 
1 1 1 1 2 2 3 3 4 4 5 5 


SCALARS ManifoldID int 1
LOOKUP_TABLE default
-1 -1 -1 -1 -1 -1 -1 -1 -1 -1 -1 -1 
-1 -1 -1 -1 -1 -1 -1 -1 -1 -1 -1 -1 

