# vtk DataFile Version 3.0
Triangulation generated with deal.II
ASCII
DATASET UNSTRUCTURED_GRID
POINTS 20 double
2 0 0
1.80902 0.587785 0
1.30902 0.951057 0
0.690983 0.951057 0
0.190983 0.587785 0
0 1.22465e-16 0
0.190983 -0.587785 0
0.690983 -0.951057 0
1.30902 -0.951057 0
1.80902 -0.587785 0
1.5 0 0
1.40451 0.293893 0
1.15451 0.475528 0
0.845492 0.475528 0
0.595492 0.293893 0
0.5 6.12323e-17 0
0.595492 -0.293893 0
0.845492 -0.475528 0
1.15451 -0.475528 0
1.40451 -0.293893 0

CELLS 40 140
4 0 1 11 10
4 1 2 12 11
4 2 3 13 12
4 3 4 14 13
4 4 5 15 14
4 5 6 16 15
4 6 7 17 16
4 7 8 18 17
4 8 9 19 18
4 9 0 10 19
2 0 1
2 0 10
2 1 2
2 1 11
2 2 3
2 2 12
2 3 4
2 3 13
2 4 5
2 4 14
2 5 6
2 5 15
2 6 7
2 6 16
2 7 8
2 7 17
2 8 9
2 8 18
2 9 0
2 9 19
2 10 11
2 11 12
2 12 13
2 13 14
2 14 15
2 15 16
2 16 17
2 17 18
2 18 19
2 19 10

CELL_TYPES 40
9 9 9 9 9 9 9 9 9 9 
3 3 3 3 3 3 3 3 3 3 3 3 3 3 3 3 3 3 3 3 3 3 3 3 3 3 3 3 3 3 


CELL_DATA 40
SCALARS MaterialID int 1
LOOKUP_TABLE default
0 0 0 0 0 0 0 0 0 0 
1 -1 1 -1 1 -1 1 -1 1 -1 1 -1 1 -1 1 -1 1 -1 1 -1 0 0 0 0 0 0 0 0 0 0 


SCALARS ManifoldID int 1
LOOKUP_TABLE default
0 0 0 0 0 0 0 0 0 0 
0 0 0 0 0 0 0 0 0 0 0 0 0 0 0 0 0 0 0 0 100 100 100 100 100 0 0 0 0 0 

