# vtk DataFile Version 3.0
Triangulation generated with deal.II
ASCII
DATASET UNSTRUCTURED_GRID
POINTS 8 double
0.292893 -0.707107 0
1.70711 -0.707107 0
0.707107 -0.292893 0
1.29289 -0.292893 0
0.707107 0.292893 0
1.29289 0.292893 0
0.292893 0.707107 0
1.70711 0.707107 0

CELLS 9 37
4 0 1 3 2
4 0 2 4 6
4 2 3 5 4
4 1 7 5 3
4 6 4 5 7
2 0 1
2 0 6
2 1 7
2 6 7

CELL_TYPES 9
9 9 9 9 9 
3 3 3 3 


CELL_DATA 9
SCALARS MaterialID int 1
LOOKUP_TABLE default
0 0 0 0 0 
0 0 0 0 


SCALARS ManifoldID int 1
LOOKUP_TABLE default
-1 -1 1 -1 -1 
100 100 100 100 

