# vtk DataFile Version 3.0
#This file was generated by the deal.II library on 2020/3/17 at 12:27:57
ASCII
DATASET UNSTRUCTURED_GRID

POINTS 12288 double
-1 -1 0
-0.96875 -1 0
-1 -0.96875 0
-0.96875 -0.96875 0
-0.96875 -1 0
-0.9375 -1 0
-0.96875 -0.96875 0
-0.9375 -0.96875 0
-1 -0.96875 0
-0.96875 -0.96875 0
-1 -0.9375 0
-0.96875 -0.9375 0
-0.96875 -0.96875 0
-0.9375 -0.96875 0
-0.96875 -0.9375 0
-0.9375 -0.9375 0
-0.9375 -1 0
-0.90625 -1 0
-0.9375 -0.96875 0
-0.90625 -0.96875 0
-0.90625 -1 0
-0.875 -1 0
-0.90625 -0.96875 0
-0.875 -0.96875 0
-0.9375 -0.96875 0
-0.90625 -0.96875 0
-0.9375 -0.9375 0
-0.90625 -0.9375 0
-0.90625 -0.96875 0
-0.875 -0.96875 0
-0.90625 -0.9375 0
-0.875 -0.9375 0
-1 -0.9375 0
-0.96875 -0.9375 0
-1 -0.90625 0
-0.96875 -0.90625 0
-0.96875 -0.9375 0
-0.9375 -0.9375 0
-0.96875 -0.90625 0
-0.9375 -0.90625 0
-1 -0.90625 0
-0.96875 -0.90625 0
-1 -0.875 0
-0.96875 -0.875 0
-0.96875 -0.90625 0
-0.9375 -0.90625 0
-0.96875 -0.875 0
-0.9375 -0.875 0
-0.9375 -0.9375 0
-0.90625 -0.9375 0
-0.9375 -0.90625 0
-0.90625 -0.90625 0
-0.90625 -0.9375 0
-0.875 -0.9375 0
-0.90625 -0.90625 0
-0.875 -0.90625 0
-0.9375 -0.90625 0
-0.90625 -0.90625 0
-0.9375 -0.875 0
-0.90625 -0.875 0
-0.90625 -0.90625 0
-0.875 -0.90625 0
-0.90625 -0.875 0
-0.875 -0.875 0
-0.875 -1 0
-0.84375 -1 0
-0.875 -0.96875 0
-0.84375 -0.96875 0
-0.84375 -1 0
-0.8125 -1 0
-0.84375 -0.96875 0
-0.8125 -0.96875 0
-0.875 -0.96875 0
-0.84375 -0.96875 0
-0.875 -0.9375 0
-0.84375 -0.9375 0
-0.84375 -0.96875 0
-0.8125 -0.96875 0
-0.84375 -0.9375 0
-0.8125 -0.9375 0
-0.8125 -1 0
-0.78125 -1 0
-0.8125 -0.96875 0
-0.78125 -0.96875 0
-0.78125 -1 0
-0.75 -1 0
-0.78125 -0.96875 0
-0.75 -0.96875 0
-0.8125 -0.96875 0
-0.78125 -0.96875 0
-0.8125 -0.9375 0
-0.78125 -0.9375 0
-0.78125 -0.96875 0
-0.75 -0.96875 0
-0.78125 -0.9375 0
-0.75 -0.9375 0
-0.875 -0.9375 0
-0.84375 -0.9375 0
-0.875 -0.90625 0
-0.84375 -0.90625 0
-0.84375 -0.9375 0
-0.8125 -0.9375 0
-0.84375 -0.90625 0
-0.8125 -0.90625 0
-0.875 -0.90625 0
-0.84375 -0.90625 0
-0.875 -0.875 0
-0.84375 -0.875 0
-0.84375 -0.90625 0
-0.8125 -0.90625 0
-0.84375 -0.875 0
-0.8125 -0.875 0
-0.8125 -0.9375 0
-0.78125 -0.9375 0
-0.8125 -0.90625 0
-0.78125 -0.90625 0
-0.78125 -0.9375 0
-0.75 -0.9375 0
-0.78125 -0.90625 0
-0.75 -0.90625 0
-0.8125 -0.90625 0
-0.78125 -0.90625 0
-0.8125 -0.875 0
-0.78125 -0.875 0
-0.78125 -0.90625 0
-0.75 -0.90625 0
-0.78125 -0.875 0
-0.75 -0.875 0
-1 -0.875 0
-0.96875 -0.875 0
-1 -0.84375 0
-0.96875 -0.84375 0
-0.96875 -0.875 0
-0.9375 -0.875 0
-0.96875 -0.84375 0
-0.9375 -0.84375 0
-1 -0.84375 0
-0.96875 -0.84375 0
-1 -0.8125 0
-0.96875 -0.8125 0
-0.96875 -0.84375 0
-0.9375 -0.84375 0
-0.96875 -0.8125 0
-0.9375 -0.8125 0
-0.9375 -0.875 0
-0.90625 -0.875 0
-0.9375 -0.84375 0
-0.90625 -0.84375 0
-0.90625 -0.875 0
-0.875 -0.875 0
-0.90625 -0.84375 0
-0.875 -0.84375 0
-0.9375 -0.84375 0
-0.90625 -0.84375 0
-0.9375 -0.8125 0
-0.90625 -0.8125 0
-0.90625 -0.84375 0
-0.875 -0.84375 0
-0.90625 -0.8125 0
-0.875 -0.8125 0
-1 -0.8125 0
-0.96875 -0.8125 0
-1 -0.78125 0
-0.96875 -0.78125 0
-0.96875 -0.8125 0
-0.9375 -0.8125 0
-0.96875 -0.78125 0
-0.9375 -0.78125 0
-1 -0.78125 0
-0.96875 -0.78125 0
-1 -0.75 0
-0.96875 -0.75 0
-0.96875 -0.78125 0
-0.9375 -0.78125 0
-0.96875 -0.75 0
-0.9375 -0.75 0
-0.9375 -0.8125 0
-0.90625 -0.8125 0
-0.9375 -0.78125 0
-0.90625 -0.78125 0
-0.90625 -0.8125 0
-0.875 -0.8125 0
-0.90625 -0.78125 0
-0.875 -0.78125 0
-0.9375 -0.78125 0
-0.90625 -0.78125 0
-0.9375 -0.75 0
-0.90625 -0.75 0
-0.90625 -0.78125 0
-0.875 -0.78125 0
-0.90625 -0.75 0
-0.875 -0.75 0
-0.875 -0.875 0
-0.84375 -0.875 0
-0.875 -0.84375 0
-0.84375 -0.84375 0
-0.84375 -0.875 0
-0.8125 -0.875 0
-0.84375 -0.84375 0
-0.8125 -0.84375 0
-0.875 -0.84375 0
-0.84375 -0.84375 0
-0.875 -0.8125 0
-0.84375 -0.8125 0
-0.84375 -0.84375 0
-0.8125 -0.84375 0
-0.84375 -0.8125 0
-0.8125 -0.8125 0
-0.8125 -0.875 0
-0.78125 -0.875 0
-0.8125 -0.84375 0
-0.78125 -0.84375 0
-0.78125 -0.875 0
-0.75 -0.875 0
-0.78125 -0.84375 0
-0.75 -0.84375 0
-0.8125 -0.84375 0
-0.78125 -0.84375 0
-0.8125 -0.8125 0
-0.78125 -0.8125 0
-0.78125 -0.84375 0
-0.75 -0.84375 0
-0.78125 -0.8125 0
-0.75 -0.8125 0
-0.875 -0.8125 0
-0.84375 -0.8125 0
-0.875 -0.78125 0
-0.84375 -0.78125 0
-0.84375 -0.8125 0
-0.8125 -0.8125 0
-0.84375 -0.78125 0
-0.8125 -0.78125 0
-0.875 -0.78125 0
-0.84375 -0.78125 0
-0.875 -0.75 0
-0.84375 -0.75 0
-0.84375 -0.78125 0
-0.8125 -0.78125 0
-0.84375 -0.75 0
-0.8125 -0.75 0
-0.8125 -0.8125 0
-0.78125 -0.8125 0
-0.8125 -0.78125 0
-0.78125 -0.78125 0
-0.78125 -0.8125 0
-0.75 -0.8125 0
-0.78125 -0.78125 0
-0.75 -0.78125 0
-0.8125 -0.78125 0
-0.78125 -0.78125 0
-0.8125 -0.75 0
-0.78125 -0.75 0
-0.78125 -0.78125 0
-0.75 -0.78125 0
-0.78125 -0.75 0
-0.75 -0.75 0
-0.75 -1 0
-0.71875 -1 0
-0.75 -0.96875 0
-0.71875 -0.96875 0
-0.71875 -1 0
-0.6875 -1 0
-0.71875 -0.96875 0
-0.6875 -0.96875 0
-0.75 -0.96875 0
-0.71875 -0.96875 0
-0.75 -0.9375 0
-0.71875 -0.9375 0
-0.71875 -0.96875 0
-0.6875 -0.96875 0
-0.71875 -0.9375 0
-0.6875 -0.9375 0
-0.6875 -1 0
-0.65625 -1 0
-0.6875 -0.96875 0
-0.65625 -0.96875 0
-0.65625 -1 0
-0.625 -1 0
-0.65625 -0.96875 0
-0.625 -0.96875 0
-0.6875 -0.96875 0
-0.65625 -0.96875 0
-0.6875 -0.9375 0
-0.65625 -0.9375 0
-0.65625 -0.96875 0
-0.625 -0.96875 0
-0.65625 -0.9375 0
-0.625 -0.9375 0
-0.75 -0.9375 0
-0.71875 -0.9375 0
-0.75 -0.90625 0
-0.71875 -0.90625 0
-0.71875 -0.9375 0
-0.6875 -0.9375 0
-0.71875 -0.90625 0
-0.6875 -0.90625 0
-0.75 -0.90625 0
-0.71875 -0.90625 0
-0.75 -0.875 0
-0.71875 -0.875 0
-0.71875 -0.90625 0
-0.6875 -0.90625 0
-0.71875 -0.875 0
-0.6875 -0.875 0
-0.6875 -0.9375 0
-0.65625 -0.9375 0
-0.6875 -0.90625 0
-0.65625 -0.90625 0
-0.65625 -0.9375 0
-0.625 -0.9375 0
-0.65625 -0.90625 0
-0.625 -0.90625 0
-0.6875 -0.90625 0
-0.65625 -0.90625 0
-0.6875 -0.875 0
-0.65625 -0.875 0
-0.65625 -0.90625 0
-0.625 -0.90625 0
-0.65625 -0.875 0
-0.625 -0.875 0
-0.625 -1 0
-0.59375 -1 0
-0.625 -0.96875 0
-0.59375 -0.96875 0
-0.59375 -1 0
-0.5625 -1 0
-0.59375 -0.96875 0
-0.5625 -0.96875 0
-0.625 -0.96875 0
-0.59375 -0.96875 0
-0.625 -0.9375 0
-0.59375 -0.9375 0
-0.59375 -0.96875 0
-0.5625 -0.96875 0
-0.59375 -0.9375 0
-0.5625 -0.9375 0
-0.5625 -1 0
-0.53125 -1 0
-0.5625 -0.96875 0
-0.53125 -0.96875 0
-0.53125 -1 0
-0.5 -1 0
-0.53125 -0.96875 0
-0.5 -0.96875 0
-0.5625 -0.96875 0
-0.53125 -0.96875 0
-0.5625 -0.9375 0
-0.53125 -0.9375 0
-0.53125 -0.96875 0
-0.5 -0.96875 0
-0.53125 -0.9375 0
-0.5 -0.9375 0
-0.625 -0.9375 0
-0.59375 -0.9375 0
-0.625 -0.90625 0
-0.59375 -0.90625 0
-0.59375 -0.9375 0
-0.5625 -0.9375 0
-0.59375 -0.90625 0
-0.5625 -0.90625 0
-0.625 -0.90625 0
-0.59375 -0.90625 0
-0.625 -0.875 0
-0.59375 -0.875 0
-0.59375 -0.90625 0
-0.5625 -0.90625 0
-0.59375 -0.875 0
-0.5625 -0.875 0
-0.5625 -0.9375 0
-0.53125 -0.9375 0
-0.5625 -0.90625 0
-0.53125 -0.90625 0
-0.53125 -0.9375 0
-0.5 -0.9375 0
-0.53125 -0.90625 0
-0.5 -0.90625 0
-0.5625 -0.90625 0
-0.53125 -0.90625 0
-0.5625 -0.875 0
-0.53125 -0.875 0
-0.53125 -0.90625 0
-0.5 -0.90625 0
-0.53125 -0.875 0
-0.5 -0.875 0
-0.75 -0.875 0
-0.71875 -0.875 0
-0.75 -0.84375 0
-0.71875 -0.84375 0
-0.71875 -0.875 0
-0.6875 -0.875 0
-0.71875 -0.84375 0
-0.6875 -0.84375 0
-0.75 -0.84375 0
-0.71875 -0.84375 0
-0.75 -0.8125 0
-0.71875 -0.8125 0
-0.71875 -0.84375 0
-0.6875 -0.84375 0
-0.71875 -0.8125 0
-0.6875 -0.8125 0
-0.6875 -0.875 0
-0.65625 -0.875 0
-0.6875 -0.84375 0
-0.65625 -0.84375 0
-0.65625 -0.875 0
-0.625 -0.875 0
-0.65625 -0.84375 0
-0.625 -0.84375 0
-0.6875 -0.84375 0
-0.65625 -0.84375 0
-0.6875 -0.8125 0
-0.65625 -0.8125 0
-0.65625 -0.84375 0
-0.625 -0.84375 0
-0.65625 -0.8125 0
-0.625 -0.8125 0
-0.75 -0.8125 0
-0.71875 -0.8125 0
-0.75 -0.78125 0
-0.71875 -0.78125 0
-0.71875 -0.8125 0
-0.6875 -0.8125 0
-0.71875 -0.78125 0
-0.6875 -0.78125 0
-0.75 -0.78125 0
-0.71875 -0.78125 0
-0.75 -0.75 0
-0.71875 -0.75 0
-0.71875 -0.78125 0
-0.6875 -0.78125 0
-0.71875 -0.75 0
-0.6875 -0.75 0
-0.6875 -0.8125 0
-0.65625 -0.8125 0
-0.6875 -0.78125 0
-0.65625 -0.78125 0
-0.65625 -0.8125 0
-0.625 -0.8125 0
-0.65625 -0.78125 0
-0.625 -0.78125 0
-0.6875 -0.78125 0
-0.65625 -0.78125 0
-0.6875 -0.75 0
-0.65625 -0.75 0
-0.65625 -0.78125 0
-0.625 -0.78125 0
-0.65625 -0.75 0
-0.625 -0.75 0
-0.625 -0.875 0
-0.59375 -0.875 0
-0.625 -0.84375 0
-0.59375 -0.84375 0
-0.59375 -0.875 0
-0.5625 -0.875 0
-0.59375 -0.84375 0
-0.5625 -0.84375 0
-0.625 -0.84375 0
-0.59375 -0.84375 0
-0.625 -0.8125 0
-0.59375 -0.8125 0
-0.59375 -0.84375 0
-0.5625 -0.84375 0
-0.59375 -0.8125 0
-0.5625 -0.8125 0
-0.5625 -0.875 0
-0.53125 -0.875 0
-0.5625 -0.84375 0
-0.53125 -0.84375 0
-0.53125 -0.875 0
-0.5 -0.875 0
-0.53125 -0.84375 0
-0.5 -0.84375 0
-0.5625 -0.84375 0
-0.53125 -0.84375 0
-0.5625 -0.8125 0
-0.53125 -0.8125 0
-0.53125 -0.84375 0
-0.5 -0.84375 0
-0.53125 -0.8125 0
-0.5 -0.8125 0
-0.625 -0.8125 0
-0.59375 -0.8125 0
-0.625 -0.78125 0
-0.59375 -0.78125 0
-0.59375 -0.8125 0
-0.5625 -0.8125 0
-0.59375 -0.78125 0
-0.5625 -0.78125 0
-0.625 -0.78125 0
-0.59375 -0.78125 0
-0.625 -0.75 0
-0.59375 -0.75 0
-0.59375 -0.78125 0
-0.5625 -0.78125 0
-0.59375 -0.75 0
-0.5625 -0.75 0
-0.5625 -0.8125 0
-0.53125 -0.8125 0
-0.5625 -0.78125 0
-0.53125 -0.78125 0
-0.53125 -0.8125 0
-0.5 -0.8125 0
-0.53125 -0.78125 0
-0.5 -0.78125 0
-0.5625 -0.78125 0
-0.53125 -0.78125 0
-0.5625 -0.75 0
-0.53125 -0.75 0
-0.53125 -0.78125 0
-0.5 -0.78125 0
-0.53125 -0.75 0
-0.5 -0.75 0
-1 -0.75 0
-0.96875 -0.75 0
-1 -0.71875 0
-0.96875 -0.71875 0
-0.96875 -0.75 0
-0.9375 -0.75 0
-0.96875 -0.71875 0
-0.9375 -0.71875 0
-1 -0.71875 0
-0.96875 -0.71875 0
-1 -0.6875 0
-0.96875 -0.6875 0
-0.96875 -0.71875 0
-0.9375 -0.71875 0
-0.96875 -0.6875 0
-0.9375 -0.6875 0
-0.9375 -0.75 0
-0.90625 -0.75 0
-0.9375 -0.71875 0
-0.90625 -0.71875 0
-0.90625 -0.75 0
-0.875 -0.75 0
-0.90625 -0.71875 0
-0.875 -0.71875 0
-0.9375 -0.71875 0
-0.90625 -0.71875 0
-0.9375 -0.6875 0
-0.90625 -0.6875 0
-0.90625 -0.71875 0
-0.875 -0.71875 0
-0.90625 -0.6875 0
-0.875 -0.6875 0
-1 -0.6875 0
-0.96875 -0.6875 0
-1 -0.65625 0
-0.96875 -0.65625 0
-0.96875 -0.6875 0
[...]
POINT_DATA 12288
SCALARS solution double 1
LOOKUP_TABLE default
0.955038 0.954794 0.954794 0.954549 0.954794 0.954062 0.954549 0.953817 0.954794 0.954549 0.954062 0.953817 0.954549 0.953817 0.953817 0.953081 0.954062 0.952846 0.953817 0.952599 0.952846 0.951148 0.952599 0.950898 0.953817 0.952599 0.953081 0.951857 0.952599 0.950898 0.951857 0.950149 0.954062 0.953817 0.952846 0.952599 0.953817 0.953081 0.952599 0.951857 0.952846 0.952599 0.951148 0.950898 0.952599 0.951857 0.950898 0.950149 0.953081 0.951857 0.951857 0.950624 0.951857 0.950149 0.950624 0.948903 0.951857 0.950624 0.950149 0.948903 0.950624 0.948903 0.948903 0.947163 0.951148 0.948975 0.950898 0.948721 0.948975 0.946332 0.948721 0.946074 0.950898 0.948721 0.950149 0.947962 0.948721 0.946074 0.947962 0.945302 0.946332 0.943227 0.946074 0.942965 0.943227 0.939672 0.942965 0.939404 0.946074 0.942965 0.945302 0.942179 0.942965 0.939404 0.942179 0.938601 0.950149 0.947962 0.948903 0.946699 0.947962 0.945302 0.946699 0.944019 0.948903 0.946699 0.947163 0.944936 0.946699 0.944019 0.944936 0.942227 0.945302 0.942179 0.944019 0.940871 0.942179 0.938601 0.940871 0.937265 0.944019 0.940871 0.942227 0.939045 0.940871 0.937265 0.939045 0.9354 0.951148 0.950898 0.948975 0.948721 0.950898 0.950149 0.948721 0.947962 0.948975 0.948721 0.946332 0.946074 0.948721 0.947962 0.946074 0.945302 0.950149 0.948903 0.947962 0.946699 0.948903 0.947163 0.946699 0.944936 0.947962 0.946699 0.945302 0.944019 0.946699 0.944936 0.944019 0.942227 0.946332 0.946074 0.943227 0.942965 0.946074 0.945302 0.942965 0.942179 0.943227 0.942965 0.939672 0.939404 0.942965 0.942179 0.939404 0.938601 0.945302 0.944019 0.942179 0.940871 0.944019 0.942227 0.940871 0.939045 0.942179 0.940871 0.938601 0.937265 0.940871 0.939045 0.937265 0.9354 0.947163 0.944936 0.944936 0.942678 0.944936 0.942227 0.942678 0.939932 0.944936 0.942678 0.942227 0.939932 0.942678 0.939932 0.939932 0.937141 0.942227 0.939045 0.939932 0.936706 0.939045 0.9354 0.936706 0.933011 0.939932 0.936706 0.937141 0.933862 0.936706 0.933011 0.933862 0.930104 0.942227 0.939932 0.939045 0.936706 0.939932 0.937141 0.936706 0.933862 0.939045 0.936706 0.9354 0.933011 0.936706 0.933862 0.933011 0.930104 0.937141 0.933862 0.933862 0.930519 0.933862 0.930104 0.930519 0.926689 0.933862 0.930519 0.930104 0.926689 0.930519 0.926689 0.926689 0.922774 0.939672 0.935676 0.939404 0.935402 0.935676 0.931253 0.935402 0.930971 0.939404 0.935402 0.938601 0.93458 0.935402 0.930971 0.93458 0.930128 0.931253 0.926416 0.930971 0.926127 0.926416 0.921181 0.926127 0.920883 0.930971 0.926127 0.930128 0.92526 0.926127 0.920883 0.92526 0.919991 0.938601 0.93458 0.937265 0.933212 0.93458 0.930128 0.933212 0.928725 0.937265 0.933212 0.9354 0.931303 0.933212 0.928725 0.931303 0.926766 0.930128 0.92526 0.928725 0.923818 0.92526 0.919991 0.923818 0.918507 0.928725 0.923818 0.926766 0.921805 0.923818 0.918507 0.921805 0.916434 0.921181 0.915565 0.920883 0.915258 0.915565 0.909587 0.915258 0.90927 0.920883 0.915258 0.919991 0.914339 0.915258 0.90927 0.914339 0.908321 0.909587 0.903265 0.90927 0.902938 0.903265 0.896622 0.902938 0.896284 0.90927 0.902938 0.908321 0.901958 0.902938 0.896284 0.901958 0.89527 0.919991 0.914339 0.918507 0.912809 0.914339 0.908321 0.912809 0.906741 0.918507 0.912809 0.916434 0.910671 0.912809 0.906741 0.910671 0.904534 0.908321 0.901958 0.906741 0.900326 0.901958 0.89527 0.900326 0.893582 0.906741 0.900326 0.904534 0.898045 0.900326 0.893582 0.898045 0.891223 0.9354 0.931303 0.933011 0.928856 0.931303 0.926766 0.928856 0.924256 0.933011 0.928856 0.930104 0.92588 0.928856 0.924256 0.92588 0.921201 0.926766 0.921805 0.924256 0.919224 0.921805 0.916434 0.919224 0.913776 0.924256 0.919224 0.921201 0.916083 0.919224 0.913776 0.916083 0.910541 0.930104 0.92588 0.926689 0.922382 0.92588 0.921201 0.922382 0.917611 0.926689 0.922382 0.922774 0.918371 0.922382 0.917611 0.918371 0.913493 0.921201 0.916083 0.917611 0.91239 0.916083 0.910541 0.91239 0.906737 0.917611 0.91239 0.913493 0.908154 0.91239 0.906737 0.908154 0.902371 0.916434 0.910671 0.913776 0.90793 0.910671 0.904534 0.90793 0.901705 0.913776 0.90793 0.910541 0.904593 0.90793 0.901705 0.904593 0.898258 0.904534 0.898045 0.901705 0.89512 0.898045 0.891223 0.89512 0.888197 0.901705 0.89512 0.898258 0.891556 0.89512 0.888197 0.891556 0.88451 0.910541 0.904593 0.906737 0.900667 0.904593 0.898258 0.900667 0.894202 0.906737 0.900667 0.902371 0.896162 0.900667 0.894202 0.896162 0.889545 0.898258 0.891556 0.894202 0.887361 0.891556 0.88451 0.887361 0.880167 0.894202 0.887361 0.889545 0.882543 0.887361 0.880167 0.882543 0.875177 0.939672 0.939404 0.935676 0.935402 0.939404 0.938601 0.935402 0.93458 0.935676 0.935402 0.931253 0.930971 0.935402 0.93458 0.930971 0.930128 0.938601 0.937265 0.93458 0.933212 0.937265 0.9354 0.933212 0.931303 0.93458 0.933212 0.930128 0.928725 0.933212 0.931303 0.928725 0.926766 0.931253 0.930971 0.926416 0.926127 0.930971 0.930128 0.926127 0.92526 0.926416 0.926127 0.921181 0.920883 0.926127 0.92526 0.920883 0.919991 0.930128 0.928725 0.92526 0.923818 0.928725 0.926766 0.923818 0.921805 0.92526 0.923818 0.919991 0.918507 0.923818 0.921805 0.918507 0.916434 0.9354 0.933011 0.931303 0.928856 0.933011 0.930104 0.928856 0.92588 0.931303 0.928856 0.926766 0.924256 0.928856 0.92588 0.924256 0.921201 0.930104 0.926689 0.92588 0.922382 0.926689 0.922774 0.922382 0.918371 0.92588 0.922382 0.921201 0.917611 0.922382 0.918371 0.917611 0.913493 0.926766 0.924256 0.921805 0.919224 0.924256 0.921201 0.919224 0.916083 0.921805 0.919224 0.916434 0.913776 0.919224 0.916083 0.913776 0.910541 0.921201 0.917611 0.916083 0.91239 0.917611 0.913493 0.91239 0.908154 0.916083 0.91239 0.910541 0.906737 0.91239 0.908154 0.906737 0.902371 0.921181 0.920883 0.915565 0.915258 0.920883 0.919991 0.915258 0.914339 0.915565 0.915258 0.909587 0.90927 0.915258 0.914339 0.90927 0.908321 0.919991 0.918507 0.914339 0.912809 0.918507 0.916434 0.912809 0.910671 0.914339 0.912809 0.908321 0.906741 0.912809 0.910671 0.906741 0.904534 0.909587 0.90927 0.903265 0.902938 0.90927 0.908321 0.902938 0.901958 0.903265 0.902938 0.896622 0.896284 0.902938 0.901958 0.896284 0.89527 0.908321 0.906741 0.901958 0.900326 0.906741 0.904534 0.900326 0.898045 0.901958 0.900326 0.89527 0.893582 0.900326 0.898045 0.893582 0.891223 0.916434 0.913776 0.910671 0.90793 0.913776 0.910541 0.90793 0.904593 0.910671 0.90793 0.904534 0.901705 0.90793 0.904593 0.901705 0.898258 0.910541 0.906737 0.904593 0.900667 0.906737 0.902371 0.900667 0.896162 0.904593 0.900667 0.898258 0.894202 0.900667 0.896162 0.894202 0.889545 0.904534 0.901705 0.898045 0.89512 0.901705 0.898258 0.89512 0.891556 0.898045 0.89512 0.891223 0.888197 0.89512 0.891556 0.888197 0.88451 0.898258 0.894202 0.891556 0.887361 0.894202 0.889545 0.887361 0.882543 0.891556 0.887361 0.88451 0.880167 0.887361 0.882543 0.880167 0.875177 0.922774 0.918371 0.918371 0.913859 0.918371 0.913493 0.913859 0.90886 0.918371 0.913859 0.913493 0.90886 0.913859 0.90886 0.90886 0.903724 0.913493 0.908154 0.90886 0.903387 0.908154 0.902371 0.903387 0.897457 0.90886 0.903387 0.903724 0.898101 0.903387 0.897457 0.898101 0.892005 0.913493 0.90886 0.908154 0.903387 0.90886 0.903724 0.903387 0.898101 0.908154 0.903387 0.902371 0.897457 0.903387 0.898101 0.897457 0.892005 0.903724 0.898101 0.898101 0.89231 0.898101 0.892005 0.89231 0.886032 0.898101 0.89231 0.892005 0.886032 0.89231 0.886032 0.886032 0.879552 0.902371 0.896162 0.897457 0.891087 0.896162 0.889545 0.891087 0.884299 0.897457 0.891087 0.892005 0.885457 0.891087 0.884299 0.885457 0.878474 0.889545 0.882543 0.884299 0.877112 0.882543 0.875177 0.877112 0.86955 0.884299 0.877112 0.878474 0.871079 0.877112 0.86955 0.871079 0.863297 0.892005 0.885457 0.886032 0.879283 0.885457 0.878474 0.879283 0.872085 0.886032 0.879283 0.879552 0.872584 0.879283 0.872085 0.872584 0.865148 0.878474 0.871079 0.872085 0.864459 0.871079 0.863297 0.864459 0.85643 0.872085 0.864459 0.865148 0.857267 0.864459 0.85643 0.857267 0.848965 0.902371 0.897457 0.896162 0.891087 0.897457 0.892005 0.891087 0.885457 0.896162 0.891087 0.889545 0.884299 0.891087 0.885457 0.884299 0.878474 0.892005 0.886032 0.885457 0.879283 0.886032 0.879552 0.879283 0.872584 0.885457 0.879283 0.878474 0.872085 0.879283 0.872584 0.872085 0.865148 0.889545 0.884299 0.882543 0.877112 0.884299 0.878474 0.877112 0.871079 0.882543 0.877112 0.875177 0.86955 0.877112 0.871079 0.86955 0.863297 0.878474 0.872085 0.871079 0.864459 0.872085 0.865148 0.864459 0.857267 0.871079 0.864459 0.863297 0.85643 0.864459 0.857267 0.85643 0.848965 0.879552 0.872584 0.872584 0.865376 0.872584 0.865148 0.865376 0.857681 0.872584 0.865376 0.865148 0.857681 0.865376 0.857681 0.857681 0.849704 0.865148 0.857267 0.857681 0.84952 0.857267 0.848965 0.84952 0.840919 0.857681 0.84952 0.849704 0.841238 0.84952 0.840919 0.841238 0.83231 0.865148 0.857681 0.857267 0.84952 0.857681 0.849704 0.84952 0.841238 0.857267 0.84952 0.848965 0.840919 0.84952 0.841238 0.840919 0.83231 0.849704 0.841238 0.841238 0.832444 0.841238 0.83231 0.832444 0.823161 0.841238 0.832444 0.83231 0.823161 0.832444 0.823161 0.823161 0.813497 0.896622 0.889679 0.896284 0.889329 0.889679 0.882459 0.889329 0.882097 0.896284 0.889329 0.89527 0.88828 0.889329 0.882097 0.88828 0.881011 0.882459 0.874987 0.882097 0.874612 0.874987 0.867287 0.874612 0.8669 0.882097 0.874612 0.881011 0.873488 0.874612 0.8669 0.873488 0.865737 0.89527 0.88828 0.893582 0.886534 0.88828 0.881011 0.886534 0.879204 0.893582 0.886534 0.891223 0.884093 0.886534 0.879204 0.884093 0.876677 0.881011 0.873488 0.879204 0.871617 0.873488 0.865737 0.871617 0.8638 0.879204 0.871617 0.876677 0.869001 0.871617 0.8638 0.869001 0.861092 0.867287 0.859387 0.8669 0.858986 0.859387 0.851312 0.858986 0.850898 0.8669 0.858986 0.865737 0.857783 0.858986 0.850898 0.857783 0.849654 0.851312 0.843091 0.850898 0.842662 0.843091 0.83475 0.842662 0.834307 0.850898 0.842662 0.849654 0.841376 0.842662 0.834307 0.841376 0.83298 0.865737 0.857783 0.8638 0.855779 0.857783 0.849654 0.855779 0.847581 0.8638 0.855779 0.861092 0.852975 0.855779 0.847581 0.852975 0.844681 0.849654 0.841376 0.847581 0.839234 0.841376 0.83298 0.839234 0.830767 0.847581 0.839234 0.844681 0.836236 0.839234 0.830767 0.836236 0.82767 0.891223 0.884093 0.888197 0.88096 0.884093 0.876677 0.88096 0.873433 0.888197 0.88096 0.88451 0.877142 0.88096 0.873433 0.877142 0.869478 0.876677 0.869001 0.873433 0.865642 0.869001 0.861092 0.865642 0.857613 0.873433 0.865642 0.869478 0.861544 0.865642 0.857613 0.861544 0.853368 0.88451 0.877142 0.880167 0.872644 0.877142 0.869478 0.872644 0.864817 0.880167 0.872644 0.875177 0.867473 0.872644 0.864817 0.867473 0.859456 0.869478 0.861544 0.864817 0.856713 0.861544 0.853368 0.856713 0.848361 0.864817 0.856713 0.859456 0.851155 0.856713 0.848361 0.851155 0.842597 0.861092 0.852975 0.857613 0.849374 0.852975 0.844681 0.849374 0.840954 0.857613 0.849374 0.853368 0.844978 0.849374 0.840954 0.844978 0.836403 0.844681 0.836236 0.840954 0.832382 0.836236 0.82767 0.832382 0.823688 0.840954 0.832382 0.836403 0.827674 0.832382 0.823688 0.827674 0.818821 0.853368 0.844978 0.848361 0.83979 0.844978 0.836403 0.83979 0.83103 0.848361 0.83979 0.842597 0.833814 0.83979 0.83103 0.833814 0.824838 0.836403 0.827674 0.83103 0.822113 0.827674 0.818821 0.822113 0.81307 0.83103 0.822113 0.824838 0.8157 0.822113 0.81307 0.8157 0.806435 0.83475 0.826317 0.834307 0.825861 0.826317 0.817821 0.825861 0.817351 0.834307 0.825861 0.83298 0.824491 0.825861 0.817351 0.824491 0.815939 0.817821 0.809289 0.817351 0.808805 0.809289 0.800748 0.808805 0.80025 0.817351 0.808805 0.815939 0.807352 0.808805 0.80025 0.807352 0.798758 0.83298 0.824491 0.830767 0.822208 0.824491 0.815939 0.822208 0.813587 0.830767 0.822208 0.82767 0.819012 0.822208 0.813587 0.819012 0.810292 0.815939 0.807352 0.813587 0.804931 0.807352 0.798758 0.804931 0.796268 0.813587 0.804931 0.810292 0.801538 0.804931 0.796268 0.801538 0.792781 0.800748 0.792225 0.80025 0.791715 0.792225 0.783747 0.791715 0.783224 0.80025 0.791715 0.798758 0.790183 0.791715 0.783224 0.790183 0.781654 0.783747 0.775338 0.783224 0.774803 0.775338 0.767023 0.774803 0.766476 0.783224 0.774803 0.781654 0.773196 0.774803 0.766476 0.773196 0.764835 0.798758 0.790183 0.796268 0.787628 0.790183 0.781654 0.787628 0.779035 0.796268 0.787628 0.792781 0.784047 0.787628 0.779035 0.784047 0.775365 0.781654 0.773196 0.779035 0.770517 0.773196 0.764835 0.770517 0.762098 0.779035 0.770517 0.775365 0.766761 0.770517 0.762098 0.766761 0.75826 0.82767 0.819012 0.823688 0.814901 0.819012 0.810292 0.814901 0.806053 0.823688 0.814901 0.818821 0.809876 0.814901 0.806053 0.809876 0.80087 0.810292 0.801538 0.806053 0.797174 0.801538 0.792781 0.797174 0.788292 0.806053 0.797174 0.80087 0.791834 0.797174 0.788292 0.791834 0.7828 0.818821 0.809876 0.81307 0.803935 0.809876 0.80087 0.803935 0.794739 0.81307 0.803935 0.806435 0.797077 0.803935 0.794739 0.797077 0.787659 0.80087 0.791834 0.794739 0.785517 0.791834 0.7828 0.785517 0.776299 0.794739 0.785517 0.787659 0.778217 0.785517 0.776299 0.778217 0.768784 0.792781 0.784047 0.788292 0.779438 0.784047 0.775365 0.779438 0.77064 0.788292 0.779438 0.7828 0.773797 0.779438 0.77064 0.773797 0.764855 0.775365 0.766761 0.77064 0.761925 0.766761 0.75826 0.761925 0.753319 0.77064 0.761925 0.764855 0.756003 0.761925 0.753319 0.756003 0.747267 0.7828 0.773797 0.776299 0.767118 0.773797 0.764855 0.767118 0.758004 0.776299 0.767118 0.768784 0.759394 0.767118 0.758004 0.759394 0.750079 0.764855 0.756003 0.758004 0.748987 0.756003 0.747267 0.748987 0.740095 0.758004 0.748987 0.750079 0.74087 0.748987 0.740095 0.74087 0.731796 0.875177 0.867473 0.86955 0.861639 0.867473 0.859456 0.861639 0.853404 0.86955 0.861639 0.863297 0.855151 0.861639 0.853404 0.855151 0.846671 0.859456 0.851155 0.853404 0.844876 0.851155 0.842597 0.844876 0.836082 0.853404 0.844876 0.846671 0.837885 0.844876 0.836082 0.837885 0.828824 0.863297 0.855151 0.85643 0.848023 0.855151 0.846671 0.848023 0.839267 0.85643 0.848023 0.848965 0.840268 0.848023 0.839267 0.840268 0.831207 0.846671 0.837885 0.839267 0.830193 0.837885 0.828824 0.830193 0.820831 0.839267 0.830193 0.831207 0.821811 0.830193 0.820831 0.821811 0.812115 0.842597 0.833814 0.836082 0.827056 0.833814 0.824838 0.827056 0.817831 0.836082 0.827056 0.828824 0.819522 0.827056 0.817831 0.819522 0.810013 0.824838 0.8157 0.817831 0.808439 0.8157 0.806435 0.808439 0.798918 0.817831 0.808439 0.810013 0.800332 0.808439 0.798918 0.800332 0.790518 0.828824 0.819522 0.820831 0.811218 0.819522 0.810013 0.811218 0.801389 0.820831 0.811218 0.812115 0.802154 0.811218 0.801389 0.802154 0.791968 0.810013 0.800332 0.801389 0.791383 0.800332 0.790518 0.791383 0.781238 0.801389 0.791383 0.791968 0.781595 0.791383 0.781238 0.781595 0.771079 0.848965 0.840268 0.840919 0.831903 0.840268 0.831207 0.831903 0.822504 0.840919 0.831903 0.83231 0.822946 0.831903 0.822504 0.822946 0.813178 0.831207 0.821811 0.822504 0.812754 0.821811 0.812115 0.812754 0.802687 0.822504 0.812754 0.813178 0.803037 0.812754 0.802687 0.803037 0.792561 0.83231 0.822946 0.823161 0.813419 0.822946 0.813178 0.813419 0.803247 0.823161 0.813419 0.813497 0.803345 0.813419 0.803247 0.803345 0.792736 0.813178 0.803037 0.803247 0.792681 0.803037 0.792561 0.792681 0.781757 0.803247 0.792681 0.792736 0.781706 0.792681 0.781757 0.781706 0.770293 0.812115 0.802154 0.802687 0.792341 0.802154 0.791968 0.792341 0.781756 0.802687 0.792341 0.792561 0.78179 0.792341 0.781756 0.78179 0.770765 0.791968 0.781595 0.781756 0.770976 0.781595 0.771079 0.770976 0.760045 0.781756 0.770976 0.770765 0.759532 0.770976 0.760045 0.759532 0.748139 0.792561 0.78179 0.781757 0.770517 0.78179 0.770765 0.770517 0.759005 0.781757 0.770517 0.770293 0.75854 0.770517 0.759005 0.75854 0.746494 0.770765 0.759532 0.759005 0.747271 0.759532 0.748139 0.747271 0.735366 0.759005 0.747271 0.746494 0.734207 0.747271 0.735366 0.734207 0.721734 0.806435 0.797077 0.798918 0.789302 0.797077 0.787659 0.789302 0.779628 0.798918 0.789302 0.790518 0.780608 0.789302 0.779628 0.780608 0.770641 0.787659 0.778217 0.779628 0.769932 0.778217 0.768784 0.769932 0.76025 0.779628 0.769932 0.770641 0.760655 0.769932 0.76025 0.760655 0.75069 0.790518 0.780608 0.781238 0.770995 0.780608 0.770641 0.770995 0.760696 0.781238 0.770995 0.771079 0.760462 0.770995 0.760696 0.760462 0.749789 0.770641 0.760655 0.760696 0.750382 0.760655 0.75069 0.750382 0.740094 0.760696 0.750382 0.749789 0.739105 0.750382 0.740094 0.739105 0.728455 0.768784 0.759394 0.76025 0.750618 0.759394 0.750079 0.750618 0.741071 0.76025 0.750618 0.75069 0.740782 0.750618 0.741071 0.740782 0.730968 0.750079 0.74087 0.741071 0.731639 0.74087 0.731796 0.731639 0.722356 0.741071 0.731639 0.730968 0.721284 0.731639 0.722356 0.721284 0.711762 0.75069 0.740782 0.740094 0.729873 0.740782 0.730968 0.729873 0.719759 0.740094 0.729873 0.728455 0.717882 0.729873 0.719759 0.717882 0.707429 0.730968 0.721284 0.719759 0.709789 0.721284 0.711762 0.709789 0.699998 0.719759 0.709789 0.707429 0.697137 0.709789 0.699998 0.697137 0.687045 0.771079 0.760462 0.760045 0.749009 0.760462 0.749789 0.749009 0.737917 0.760045 0.749009 0.748139 0.736636 0.749009 0.737917 0.736636 0.725077 0.749789 0.739105 0.737917 0.726818 0.739105 0.728455 0.726818 0.71576 0.737917 0.726818 0.725077 0.713513 0.726818 0.71576 0.713513 0.701999 0.748139 0.736636 0.735366 0.723344 0.736636 0.725077 0.723344 0.711263 0.735366 0.723344 0.721734 0.709135 0.723344 0.711263 0.709135 0.696474 0.725077 0.713513 0.711263 0.699181 0.713513 0.701999 0.699181 0.687158 0.711263 0.699181 0.696474 0.683814 0.699181 0.687158 0.683814 0.671222 0.728455 0.717882 0.71576 0.704792 0.717882 0.707429 0.704792 0.69396 0.71576 0.704792 0.701999 0.690589 0.704792 0.69396 0.690589 0.679333 0.707429 0.697137 0.69396 0.683309 0.697137 0.687045 0.683309 0.67288 0.69396 0.683309 0.679333 0.668281 0.683309 0.67288 0.668281 0.657477 0.701999 0.690589 0.687158 0.675254 0.690589 0.679333 0.675254 0.663524 0.687158 0.675254 0.671222 0.658766 0.675254 0.663524 0.658766 0.646508 0.679333 0.668281 0.663524 0.652025 0.668281 0.657477 0.652025 0.640806 0.663524 0.652025 0.646508 0.634511 0.652025 0.640806 0.634511 0.622831 0.896622 0.896284 0.889679 0.889329 0.896284 0.89527 0.889329 0.88828 0.889679 0.889329 0.882459 0.882097 0.889329 0.88828 0.882097 0.881011 0.89527 0.893582 0.88828 0.886534 0.893582 0.891223 0.886534 0.884093 0.88828 0.886534 0.881011 0.879204 0.886534 0.884093 0.879204 0.876677 0.882459 0.882097 0.874987 0.874612 0.882097 0.881011 0.874612 0.873488 0.874987 0.874612 0.867287 0.8669 0.874612 0.873488 0.8669 0.865737 0.881011 0.879204 0.873488 0.871617 0.879204 0.876677 0.871617 0.869001 0.873488 0.871617 0.865737 0.8638 0.871617 0.869001 0.8638 0.861092 0.891223 0.888197 0.884093 0.88096 0.888197 0.88451 0.88096 0.877142 0.884093 0.88096 0.876677 0.873433 0.88096 0.877142 0.873433 0.869478 0.88451 0.880167 0.877142 0.872644 0.880167 0.875177 0.872644 0.867473 0.877142 0.872644 0.869478 0.864817 0.872644 0.867473 0.864817 0.859456 0.876677 0.873433 0.869001 0.865642 0.873433 0.869478 0.865642 0.861544 0.869001 0.865642 0.861092 0.857613 0.865642 0.861544 0.857613 0.853368 0.869478 0.864817 0.861544 0.856713 0.864817 0.859456 0.856713 0.851155 0.861544 0.856713 0.853368 0.848361 0.856713 0.851155 0.848361 0.842597 0.867287 0.8669 0.859387 0.858986 0.8669 0.865737 0.858986 0.857783 0.859387 0.858986 0.851312 0.850898 0.858986 0.857783 0.850898 0.849654 0.865737 0.8638 0.857783 0.855779 0.8638 0.861092 0.855779 0.852975 0.857783 0.855779 0.849654 0.847581 0.855779 0.852975 0.847581 0.844681 0.851312 0.850898 0.843091 0.842662 0.850898 0.849654 0.842662 0.841376 0.843091 0.842662 0.83475 0.834307 0.842662 0.841376 0.834307 0.83298 0.849654 0.847581 0.841376 0.839234 0.847581 0.844681 0.839234 0.836236 0.841376 0.839234 0.83298 0.830767 0.839234 0.836236 0.830767 0.82767 0.861092 0.857613 0.852975 0.84937